V -t * -v 1.0a5 -a 0
A -t * -n 1 -p 0 -o 0x7fffffff -c 30 -a 1
A -t * -h 1 -m 1073741823 -s 0
n -t * -a 4 -s 4 -S UP -v circle -c black -i black
n -t * -a 0 -s 0 -S UP -v circle -c black -i black
n -t * -a 1 -s 1 -S UP -v circle -c black -i black
n -t * -a 2 -s 2 -S UP -v circle -c black -i black
n -t * -a 3 -s 3 -S UP -v circle -c black -i black
l -t * -s 0 -d 1 -S UP -r 1000000 -D 0.0050000000000000001 -c black -o right
l -t * -s 1 -d 2 -S UP -r 1000000 -D 0.0050000000000000001 -c black -o right
l -t * -s 1 -d 3 -S UP -r 1000000 -D 0.0050000000000000001 -c black -o down
l -t * -s 1 -d 4 -S UP -r 1000000 -D 0.0050000000000000001 -c black -o up
+ -t 0.05 -s 0 -d 1 -p cbr -e 210 -c 0 -i 0 -a 0 -x {0.1 1073741824.0 0 ------- null}
- -t 0.05 -s 0 -d 1 -p cbr -e 210 -c 0 -i 0 -a 0 -x {0.1 1073741824.0 0 ------- null}
h -t 0.05 -s 0 -d 1 -p cbr -e 210 -c 0 -i 0 -a 0 -x {0.1 1073741824.0 -1 ------- null}
+ -t 0.05 -s 2 -d 1 -p cbr -e 210 -c 0 -i 1 -a 0 -x {2.1 1073741825.0 0 ------- null}
- -t 0.05 -s 2 -d 1 -p cbr -e 210 -c 0 -i 1 -a 0 -x {2.1 1073741825.0 0 ------- null}
h -t 0.05 -s 2 -d 1 -p cbr -e 210 -c 0 -i 1 -a 0 -x {2.1 1073741825.0 -1 ------- null}
+ -t 0.05375 -s 0 -d 1 -p cbr -e 210 -c 0 -i 2 -a 0 -x {0.1 1073741824.0 1 ------- null}
- -t 0.05375 -s 0 -d 1 -p cbr -e 210 -c 0 -i 2 -a 0 -x {0.1 1073741824.0 1 ------- null}
h -t 0.05375 -s 0 -d 1 -p cbr -e 210 -c 0 -i 2 -a 0 -x {0.1 1073741824.0 -1 ------- null}
+ -t 0.05375 -s 2 -d 1 -p cbr -e 210 -c 0 -i 3 -a 0 -x {2.1 1073741825.0 1 ------- null}
- -t 0.05375 -s 2 -d 1 -p cbr -e 210 -c 0 -i 3 -a 0 -x {2.1 1073741825.0 1 ------- null}
h -t 0.05375 -s 2 -d 1 -p cbr -e 210 -c 0 -i 3 -a 0 -x {2.1 1073741825.0 -1 ------- null}
r -t 0.05668 -s 0 -d 1 -p cbr -e 210 -c 0 -i 0 -a 0 -x {0.1 1073741824.0 0 ------- null}
+ -t 0.05668 -s 1 -d 4 -p cbr -e 210 -c 0 -i 0 -a 0 -x {0.1 1073741824.0 0 ------- null}
- -t 0.05668 -s 1 -d 4 -p cbr -e 210 -c 0 -i 0 -a 0 -x {0.1 1073741824.0 0 ------- null}
h -t 0.05668 -s 1 -d 4 -p cbr -e 210 -c 0 -i 0 -a 0 -x {0.1 1073741824.0 -1 ------- null}
+ -t 0.05668 -s 1 -d 2 -p cbr -e 210 -c 0 -i 0 -a 0 -x {0.1 1073741824.0 0 ------- null}
- -t 0.05668 -s 1 -d 2 -p cbr -e 210 -c 0 -i 0 -a 0 -x {0.1 1073741824.0 0 ------- null}
h -t 0.05668 -s 1 -d 2 -p cbr -e 210 -c 0 -i 0 -a 0 -x {0.1 1073741824.0 -1 ------- null}
+ -t 0.05668 -s 1 -d 3 -p cbr -e 210 -c 0 -i 0 -a 0 -x {0.1 1073741824.0 0 ------- null}
- -t 0.05668 -s 1 -d 3 -p cbr -e 210 -c 0 -i 0 -a 0 -x {0.1 1073741824.0 0 ------- null}
h -t 0.05668 -s 1 -d 3 -p cbr -e 210 -c 0 -i 0 -a 0 -x {0.1 1073741824.0 -1 ------- null}
r -t 0.05668 -s 2 -d 1 -p cbr -e 210 -c 0 -i 1 -a 0 -x {2.1 1073741825.0 0 ------- null}
+ -t 0.05668 -s 1 -d 4 -p cbr -e 210 -c 0 -i 1 -a 0 -x {2.1 1073741825.0 0 ------- null}
+ -t 0.05668 -s 1 -d 0 -p cbr -e 210 -c 0 -i 1 -a 0 -x {2.1 1073741825.0 0 ------- null}
- -t 0.05668 -s 1 -d 0 -p cbr -e 210 -c 0 -i 1 -a 0 -x {2.1 1073741825.0 0 ------- null}
h -t 0.05668 -s 1 -d 0 -p cbr -e 210 -c 0 -i 1 -a 0 -x {2.1 1073741825.0 -1 ------- null}
+ -t 0.05668 -s 1 -d 3 -p cbr -e 210 -c 0 -i 1 -a 0 -x {2.1 1073741825.0 0 ------- null}
+ -t 0.0575 -s 0 -d 1 -p cbr -e 210 -c 0 -i 4 -a 0 -x {0.1 1073741824.0 2 ------- null}
- -t 0.0575 -s 0 -d 1 -p cbr -e 210 -c 0 -i 4 -a 0 -x {0.1 1073741824.0 2 ------- null}
h -t 0.0575 -s 0 -d 1 -p cbr -e 210 -c 0 -i 4 -a 0 -x {0.1 1073741824.0 -1 ------- null}
+ -t 0.0575 -s 2 -d 1 -p cbr -e 210 -c 0 -i 5 -a 0 -x {2.1 1073741825.0 2 ------- null}
- -t 0.0575 -s 2 -d 1 -p cbr -e 210 -c 0 -i 5 -a 0 -x {2.1 1073741825.0 2 ------- null}
h -t 0.0575 -s 2 -d 1 -p cbr -e 210 -c 0 -i 5 -a 0 -x {2.1 1073741825.0 -1 ------- null}
- -t 0.05836 -s 1 -d 4 -p cbr -e 210 -c 0 -i 1 -a 0 -x {2.1 1073741825.0 0 ------- null}
h -t 0.05836 -s 1 -d 4 -p cbr -e 210 -c 0 -i 1 -a 0 -x {2.1 1073741825.0 -1 ------- null}
- -t 0.05836 -s 1 -d 3 -p cbr -e 210 -c 0 -i 1 -a 0 -x {2.1 1073741825.0 0 ------- null}
h -t 0.05836 -s 1 -d 3 -p cbr -e 210 -c 0 -i 1 -a 0 -x {2.1 1073741825.0 -1 ------- null}
r -t 0.06043 -s 0 -d 1 -p cbr -e 210 -c 0 -i 2 -a 0 -x {0.1 1073741824.0 1 ------- null}
+ -t 0.06043 -s 1 -d 4 -p cbr -e 210 -c 0 -i 2 -a 0 -x {0.1 1073741824.0 1 ------- null}
- -t 0.06043 -s 1 -d 4 -p cbr -e 210 -c 0 -i 2 -a 0 -x {0.1 1073741824.0 1 ------- null}
h -t 0.06043 -s 1 -d 4 -p cbr -e 210 -c 0 -i 2 -a 0 -x {0.1 1073741824.0 -1 ------- null}
+ -t 0.06043 -s 1 -d 2 -p cbr -e 210 -c 0 -i 2 -a 0 -x {0.1 1073741824.0 1 ------- null}
- -t 0.06043 -s 1 -d 2 -p cbr -e 210 -c 0 -i 2 -a 0 -x {0.1 1073741824.0 1 ------- null}
h -t 0.06043 -s 1 -d 2 -p cbr -e 210 -c 0 -i 2 -a 0 -x {0.1 1073741824.0 -1 ------- null}
+ -t 0.06043 -s 1 -d 3 -p cbr -e 210 -c 0 -i 2 -a 0 -x {0.1 1073741824.0 1 ------- null}
- -t 0.06043 -s 1 -d 3 -p cbr -e 210 -c 0 -i 2 -a 0 -x {0.1 1073741824.0 1 ------- null}
h -t 0.06043 -s 1 -d 3 -p cbr -e 210 -c 0 -i 2 -a 0 -x {0.1 1073741824.0 -1 ------- null}
r -t 0.06043 -s 2 -d 1 -p cbr -e 210 -c 0 -i 3 -a 0 -x {2.1 1073741825.0 1 ------- null}
+ -t 0.06043 -s 1 -d 4 -p cbr -e 210 -c 0 -i 3 -a 0 -x {2.1 1073741825.0 1 ------- null}
+ -t 0.06043 -s 1 -d 0 -p cbr -e 210 -c 0 -i 3 -a 0 -x {2.1 1073741825.0 1 ------- null}
- -t 0.06043 -s 1 -d 0 -p cbr -e 210 -c 0 -i 3 -a 0 -x {2.1 1073741825.0 1 ------- null}
h -t 0.06043 -s 1 -d 0 -p cbr -e 210 -c 0 -i 3 -a 0 -x {2.1 1073741825.0 -1 ------- null}
+ -t 0.06043 -s 1 -d 3 -p cbr -e 210 -c 0 -i 3 -a 0 -x {2.1 1073741825.0 1 ------- null}
+ -t 0.06125 -s 0 -d 1 -p cbr -e 210 -c 0 -i 6 -a 0 -x {0.1 1073741824.0 3 ------- null}
- -t 0.06125 -s 0 -d 1 -p cbr -e 210 -c 0 -i 6 -a 0 -x {0.1 1073741824.0 3 ------- null}
h -t 0.06125 -s 0 -d 1 -p cbr -e 210 -c 0 -i 6 -a 0 -x {0.1 1073741824.0 -1 ------- null}
+ -t 0.06125 -s 2 -d 1 -p cbr -e 210 -c 0 -i 7 -a 0 -x {2.1 1073741825.0 3 ------- null}
- -t 0.06125 -s 2 -d 1 -p cbr -e 210 -c 0 -i 7 -a 0 -x {2.1 1073741825.0 3 ------- null}
h -t 0.06125 -s 2 -d 1 -p cbr -e 210 -c 0 -i 7 -a 0 -x {2.1 1073741825.0 -1 ------- null}
- -t 0.06211 -s 1 -d 4 -p cbr -e 210 -c 0 -i 3 -a 0 -x {2.1 1073741825.0 1 ------- null}
h -t 0.06211 -s 1 -d 4 -p cbr -e 210 -c 0 -i 3 -a 0 -x {2.1 1073741825.0 -1 ------- null}
- -t 0.06211 -s 1 -d 3 -p cbr -e 210 -c 0 -i 3 -a 0 -x {2.1 1073741825.0 1 ------- null}
h -t 0.06211 -s 1 -d 3 -p cbr -e 210 -c 0 -i 3 -a 0 -x {2.1 1073741825.0 -1 ------- null}
r -t 0.06336 -s 1 -d 4 -p cbr -e 210 -c 0 -i 0 -a 0 -x {0.1 1073741824.0 0 ------- null}
+ -t 0.06336 -s 4 -d 1 -p prune -e 80 -c 30 -i 8 -a 30 -x {4.0 1.0 -1 ------- null}
- -t 0.06336 -s 4 -d 1 -p prune -e 80 -c 30 -i 8 -a 30 -x {4.0 1.0 -1 ------- null}
h -t 0.06336 -s 4 -d 1 -p prune -e 80 -c 30 -i 8 -a 30 -x {4.0 1.0 -1 ------- null}
r -t 0.06336 -s 1 -d 2 -p cbr -e 210 -c 0 -i 0 -a 0 -x {0.1 1073741824.0 0 ------- null}
+ -t 0.06336 -s 2 -d 1 -p prune -e 80 -c 30 -i 9 -a 30 -x {2.0 1.0 -1 ------- null}
- -t 0.06336 -s 2 -d 1 -p prune -e 80 -c 30 -i 9 -a 30 -x {2.0 1.0 -1 ------- null}
h -t 0.06336 -s 2 -d 1 -p prune -e 80 -c 30 -i 9 -a 30 -x {2.0 1.0 -1 ------- null}
r -t 0.06336 -s 1 -d 3 -p cbr -e 210 -c 0 -i 0 -a 0 -x {0.1 1073741824.0 0 ------- null}
+ -t 0.06336 -s 3 -d 1 -p prune -e 80 -c 30 -i 10 -a 30 -x {3.0 1.0 -1 ------- null}
- -t 0.06336 -s 3 -d 1 -p prune -e 80 -c 30 -i 10 -a 30 -x {3.0 1.0 -1 ------- null}
h -t 0.06336 -s 3 -d 1 -p prune -e 80 -c 30 -i 10 -a 30 -x {3.0 1.0 -1 ------- null}
r -t 0.06336 -s 1 -d 0 -p cbr -e 210 -c 0 -i 1 -a 0 -x {2.1 1073741825.0 0 ------- null}
+ -t 0.06336 -s 0 -d 1 -p prune -e 80 -c 30 -i 11 -a 30 -x {0.0 1.0 -1 ------- null}
- -t 0.06336 -s 0 -d 1 -p prune -e 80 -c 30 -i 11 -a 30 -x {0.0 1.0 -1 ------- null}
h -t 0.06336 -s 0 -d 1 -p prune -e 80 -c 30 -i 11 -a 30 -x {0.0 1.0 -1 ------- null}
r -t 0.06418 -s 0 -d 1 -p cbr -e 210 -c 0 -i 4 -a 0 -x {0.1 1073741824.0 2 ------- null}
+ -t 0.06418 -s 1 -d 4 -p cbr -e 210 -c 0 -i 4 -a 0 -x {0.1 1073741824.0 2 ------- null}
- -t 0.06418 -s 1 -d 4 -p cbr -e 210 -c 0 -i 4 -a 0 -x {0.1 1073741824.0 2 ------- null}
h -t 0.06418 -s 1 -d 4 -p cbr -e 210 -c 0 -i 4 -a 0 -x {0.1 1073741824.0 -1 ------- null}
+ -t 0.06418 -s 1 -d 2 -p cbr -e 210 -c 0 -i 4 -a 0 -x {0.1 1073741824.0 2 ------- null}
- -t 0.06418 -s 1 -d 2 -p cbr -e 210 -c 0 -i 4 -a 0 -x {0.1 1073741824.0 2 ------- null}
h -t 0.06418 -s 1 -d 2 -p cbr -e 210 -c 0 -i 4 -a 0 -x {0.1 1073741824.0 -1 ------- null}
+ -t 0.06418 -s 1 -d 3 -p cbr -e 210 -c 0 -i 4 -a 0 -x {0.1 1073741824.0 2 ------- null}
- -t 0.06418 -s 1 -d 3 -p cbr -e 210 -c 0 -i 4 -a 0 -x {0.1 1073741824.0 2 ------- null}
h -t 0.06418 -s 1 -d 3 -p cbr -e 210 -c 0 -i 4 -a 0 -x {0.1 1073741824.0 -1 ------- null}
r -t 0.06418 -s 2 -d 1 -p cbr -e 210 -c 0 -i 5 -a 0 -x {2.1 1073741825.0 2 ------- null}
+ -t 0.06418 -s 1 -d 4 -p cbr -e 210 -c 0 -i 5 -a 0 -x {2.1 1073741825.0 2 ------- null}
+ -t 0.06418 -s 1 -d 0 -p cbr -e 210 -c 0 -i 5 -a 0 -x {2.1 1073741825.0 2 ------- null}
- -t 0.06418 -s 1 -d 0 -p cbr -e 210 -c 0 -i 5 -a 0 -x {2.1 1073741825.0 2 ------- null}
h -t 0.06418 -s 1 -d 0 -p cbr -e 210 -c 0 -i 5 -a 0 -x {2.1 1073741825.0 -1 ------- null}
+ -t 0.06418 -s 1 -d 3 -p cbr -e 210 -c 0 -i 5 -a 0 -x {2.1 1073741825.0 2 ------- null}
+ -t 0.065 -s 0 -d 1 -p cbr -e 210 -c 0 -i 12 -a 0 -x {0.1 1073741824.0 4 ------- null}
- -t 0.065 -s 0 -d 1 -p cbr -e 210 -c 0 -i 12 -a 0 -x {0.1 1073741824.0 4 ------- null}
h -t 0.065 -s 0 -d 1 -p cbr -e 210 -c 0 -i 12 -a 0 -x {0.1 1073741824.0 -1 ------- null}
+ -t 0.065 -s 2 -d 1 -p cbr -e 210 -c 0 -i 13 -a 0 -x {2.1 1073741825.0 4 ------- null}
- -t 0.065 -s 2 -d 1 -p cbr -e 210 -c 0 -i 13 -a 0 -x {2.1 1073741825.0 4 ------- null}
h -t 0.065 -s 2 -d 1 -p cbr -e 210 -c 0 -i 13 -a 0 -x {2.1 1073741825.0 -1 ------- null}
r -t 0.06504 -s 1 -d 4 -p cbr -e 210 -c 0 -i 1 -a 0 -x {2.1 1073741825.0 0 ------- null}
+ -t 0.06504 -s 4 -d 1 -p prune -e 80 -c 30 -i 14 -a 30 -x {4.0 1.0 -1 ------- null}
- -t 0.06504 -s 4 -d 1 -p prune -e 80 -c 30 -i 14 -a 30 -x {4.0 1.0 -1 ------- null}
h -t 0.06504 -s 4 -d 1 -p prune -e 80 -c 30 -i 14 -a 30 -x {4.0 1.0 -1 ------- null}
r -t 0.06504 -s 1 -d 3 -p cbr -e 210 -c 0 -i 1 -a 0 -x {2.1 1073741825.0 0 ------- null}
+ -t 0.06504 -s 3 -d 1 -p prune -e 80 -c 30 -i 15 -a 30 -x {3.0 1.0 -1 ------- null}
- -t 0.06504 -s 3 -d 1 -p prune -e 80 -c 30 -i 15 -a 30 -x {3.0 1.0 -1 ------- null}
h -t 0.06504 -s 3 -d 1 -p prune -e 80 -c 30 -i 15 -a 30 -x {3.0 1.0 -1 ------- null}
- -t 0.06586 -s 1 -d 4 -p cbr -e 210 -c 0 -i 5 -a 0 -x {2.1 1073741825.0 2 ------- null}
h -t 0.06586 -s 1 -d 4 -p cbr -e 210 -c 0 -i 5 -a 0 -x {2.1 1073741825.0 -1 ------- null}
- -t 0.06586 -s 1 -d 3 -p cbr -e 210 -c 0 -i 5 -a 0 -x {2.1 1073741825.0 2 ------- null}
h -t 0.06586 -s 1 -d 3 -p cbr -e 210 -c 0 -i 5 -a 0 -x {2.1 1073741825.0 -1 ------- null}
r -t 0.06711 -s 1 -d 4 -p cbr -e 210 -c 0 -i 2 -a 0 -x {0.1 1073741824.0 1 ------- null}
+ -t 0.06711 -s 4 -d 1 -p prune -e 80 -c 30 -i 16 -a 30 -x {4.0 1.0 -1 ------- null}
- -t 0.06711 -s 4 -d 1 -p prune -e 80 -c 30 -i 16 -a 30 -x {4.0 1.0 -1 ------- null}
h -t 0.06711 -s 4 -d 1 -p prune -e 80 -c 30 -i 16 -a 30 -x {4.0 1.0 -1 ------- null}
r -t 0.06711 -s 1 -d 2 -p cbr -e 210 -c 0 -i 2 -a 0 -x {0.1 1073741824.0 1 ------- null}
+ -t 0.06711 -s 2 -d 1 -p prune -e 80 -c 30 -i 17 -a 30 -x {2.0 1.0 -1 ------- null}
- -t 0.06711 -s 2 -d 1 -p prune -e 80 -c 30 -i 17 -a 30 -x {2.0 1.0 -1 ------- null}
h -t 0.06711 -s 2 -d 1 -p prune -e 80 -c 30 -i 17 -a 30 -x {2.0 1.0 -1 ------- null}
r -t 0.06711 -s 1 -d 3 -p cbr -e 210 -c 0 -i 2 -a 0 -x {0.1 1073741824.0 1 ------- null}
+ -t 0.06711 -s 3 -d 1 -p prune -e 80 -c 30 -i 18 -a 30 -x {3.0 1.0 -1 ------- null}
- -t 0.06711 -s 3 -d 1 -p prune -e 80 -c 30 -i 18 -a 30 -x {3.0 1.0 -1 ------- null}
h -t 0.06711 -s 3 -d 1 -p prune -e 80 -c 30 -i 18 -a 30 -x {3.0 1.0 -1 ------- null}
r -t 0.06711 -s 1 -d 0 -p cbr -e 210 -c 0 -i 3 -a 0 -x {2.1 1073741825.0 1 ------- null}
+ -t 0.06711 -s 0 -d 1 -p prune -e 80 -c 30 -i 19 -a 30 -x {0.0 1.0 -1 ------- null}
- -t 0.06711 -s 0 -d 1 -p prune -e 80 -c 30 -i 19 -a 30 -x {0.0 1.0 -1 ------- null}
h -t 0.06711 -s 0 -d 1 -p prune -e 80 -c 30 -i 19 -a 30 -x {0.0 1.0 -1 ------- null}
r -t 0.06793 -s 0 -d 1 -p cbr -e 210 -c 0 -i 6 -a 0 -x {0.1 1073741824.0 3 ------- null}
+ -t 0.06793 -s 1 -d 4 -p cbr -e 210 -c 0 -i 6 -a 0 -x {0.1 1073741824.0 3 ------- null}
- -t 0.06793 -s 1 -d 4 -p cbr -e 210 -c 0 -i 6 -a 0 -x {0.1 1073741824.0 3 ------- null}
h -t 0.06793 -s 1 -d 4 -p cbr -e 210 -c 0 -i 6 -a 0 -x {0.1 1073741824.0 -1 ------- null}
+ -t 0.06793 -s 1 -d 2 -p cbr -e 210 -c 0 -i 6 -a 0 -x {0.1 1073741824.0 3 ------- null}
- -t 0.06793 -s 1 -d 2 -p cbr -e 210 -c 0 -i 6 -a 0 -x {0.1 1073741824.0 3 ------- null}
h -t 0.06793 -s 1 -d 2 -p cbr -e 210 -c 0 -i 6 -a 0 -x {0.1 1073741824.0 -1 ------- null}
+ -t 0.06793 -s 1 -d 3 -p cbr -e 210 -c 0 -i 6 -a 0 -x {0.1 1073741824.0 3 ------- null}
- -t 0.06793 -s 1 -d 3 -p cbr -e 210 -c 0 -i 6 -a 0 -x {0.1 1073741824.0 3 ------- null}
h -t 0.06793 -s 1 -d 3 -p cbr -e 210 -c 0 -i 6 -a 0 -x {0.1 1073741824.0 -1 ------- null}
r -t 0.06793 -s 2 -d 1 -p cbr -e 210 -c 0 -i 7 -a 0 -x {2.1 1073741825.0 3 ------- null}
+ -t 0.06793 -s 1 -d 4 -p cbr -e 210 -c 0 -i 7 -a 0 -x {2.1 1073741825.0 3 ------- null}
+ -t 0.06793 -s 1 -d 0 -p cbr -e 210 -c 0 -i 7 -a 0 -x {2.1 1073741825.0 3 ------- null}
- -t 0.06793 -s 1 -d 0 -p cbr -e 210 -c 0 -i 7 -a 0 -x {2.1 1073741825.0 3 ------- null}
h -t 0.06793 -s 1 -d 0 -p cbr -e 210 -c 0 -i 7 -a 0 -x {2.1 1073741825.0 -1 ------- null}
+ -t 0.06793 -s 1 -d 3 -p cbr -e 210 -c 0 -i 7 -a 0 -x {2.1 1073741825.0 3 ------- null}
+ -t 0.06875 -s 0 -d 1 -p cbr -e 210 -c 0 -i 20 -a 0 -x {0.1 1073741824.0 5 ------- null}
- -t 0.06875 -s 0 -d 1 -p cbr -e 210 -c 0 -i 20 -a 0 -x {0.1 1073741824.0 5 ------- null}
h -t 0.06875 -s 0 -d 1 -p cbr -e 210 -c 0 -i 20 -a 0 -x {0.1 1073741824.0 -1 ------- null}
+ -t 0.06875 -s 2 -d 1 -p cbr -e 210 -c 0 -i 21 -a 0 -x {2.1 1073741825.0 5 ------- null}
- -t 0.06875 -s 2 -d 1 -p cbr -e 210 -c 0 -i 21 -a 0 -x {2.1 1073741825.0 5 ------- null}
h -t 0.06875 -s 2 -d 1 -p cbr -e 210 -c 0 -i 21 -a 0 -x {2.1 1073741825.0 -1 ------- null}
r -t 0.06879 -s 1 -d 4 -p cbr -e 210 -c 0 -i 3 -a 0 -x {2.1 1073741825.0 1 ------- null}
+ -t 0.06879 -s 4 -d 1 -p prune -e 80 -c 30 -i 22 -a 30 -x {4.0 1.0 -1 ------- null}
- -t 0.06879 -s 4 -d 1 -p prune -e 80 -c 30 -i 22 -a 30 -x {4.0 1.0 -1 ------- null}
h -t 0.06879 -s 4 -d 1 -p prune -e 80 -c 30 -i 22 -a 30 -x {4.0 1.0 -1 ------- null}
r -t 0.06879 -s 1 -d 3 -p cbr -e 210 -c 0 -i 3 -a 0 -x {2.1 1073741825.0 1 ------- null}
+ -t 0.06879 -s 3 -d 1 -p prune -e 80 -c 30 -i 23 -a 30 -x {3.0 1.0 -1 ------- null}
- -t 0.06879 -s 3 -d 1 -p prune -e 80 -c 30 -i 23 -a 30 -x {3.0 1.0 -1 ------- null}
h -t 0.06879 -s 3 -d 1 -p prune -e 80 -c 30 -i 23 -a 30 -x {3.0 1.0 -1 ------- null}
r -t 0.069 -s 4 -d 1 -p prune -e 80 -c 30 -i 8 -a 30 -x {4.0 1.0 -1 ------- null}
r -t 0.069 -s 2 -d 1 -p prune -e 80 -c 30 -i 9 -a 30 -x {2.0 1.0 -1 ------- null}
r -t 0.069 -s 3 -d 1 -p prune -e 80 -c 30 -i 10 -a 30 -x {3.0 1.0 -1 ------- null}
+ -t 0.069 -s 1 -d 0 -p prune -e 80 -c 30 -i 24 -a 30 -x {1.0 0.0 -1 ------- null}
r -t 0.069 -s 0 -d 1 -p prune -e 80 -c 30 -i 11 -a 30 -x {0.0 1.0 -1 ------- null}
- -t 0.06961 -s 1 -d 4 -p cbr -e 210 -c 0 -i 7 -a 0 -x {2.1 1073741825.0 3 ------- null}
h -t 0.06961 -s 1 -d 4 -p cbr -e 210 -c 0 -i 7 -a 0 -x {2.1 1073741825.0 -1 ------- null}
- -t 0.06961 -s 1 -d 3 -p cbr -e 210 -c 0 -i 7 -a 0 -x {2.1 1073741825.0 3 ------- null}
h -t 0.06961 -s 1 -d 3 -p cbr -e 210 -c 0 -i 7 -a 0 -x {2.1 1073741825.0 -1 ------- null}
- -t 0.06961 -s 1 -d 0 -p prune -e 80 -c 30 -i 24 -a 30 -x {1.0 0.0 -1 ------- null}
h -t 0.06961 -s 1 -d 0 -p prune -e 80 -c 30 -i 24 -a 30 -x {1.0 0.0 -1 ------- null}
r -t 0.07068 -s 4 -d 1 -p prune -e 80 -c 30 -i 14 -a 30 -x {4.0 1.0 -1 ------- null}
r -t 0.07068 -s 3 -d 1 -p prune -e 80 -c 30 -i 15 -a 30 -x {3.0 1.0 -1 ------- null}
+ -t 0.07068 -s 1 -d 2 -p prune -e 80 -c 30 -i 25 -a 30 -x {1.0 2.0 -1 ------- null}
- -t 0.07068 -s 1 -d 2 -p prune -e 80 -c 30 -i 25 -a 30 -x {1.0 2.0 -1 ------- null}
h -t 0.07068 -s 1 -d 2 -p prune -e 80 -c 30 -i 25 -a 30 -x {1.0 2.0 -1 ------- null}
r -t 0.07086 -s 1 -d 4 -p cbr -e 210 -c 0 -i 4 -a 0 -x {0.1 1073741824.0 2 ------- null}
+ -t 0.07086 -s 4 -d 1 -p prune -e 80 -c 30 -i 26 -a 30 -x {4.0 1.0 -1 ------- null}
- -t 0.07086 -s 4 -d 1 -p prune -e 80 -c 30 -i 26 -a 30 -x {4.0 1.0 -1 ------- null}
h -t 0.07086 -s 4 -d 1 -p prune -e 80 -c 30 -i 26 -a 30 -x {4.0 1.0 -1 ------- null}
r -t 0.07086 -s 1 -d 2 -p cbr -e 210 -c 0 -i 4 -a 0 -x {0.1 1073741824.0 2 ------- null}
+ -t 0.07086 -s 2 -d 1 -p prune -e 80 -c 30 -i 27 -a 30 -x {2.0 1.0 -1 ------- null}
- -t 0.07086 -s 2 -d 1 -p prune -e 80 -c 30 -i 27 -a 30 -x {2.0 1.0 -1 ------- null}
h -t 0.07086 -s 2 -d 1 -p prune -e 80 -c 30 -i 27 -a 30 -x {2.0 1.0 -1 ------- null}
r -t 0.07086 -s 1 -d 3 -p cbr -e 210 -c 0 -i 4 -a 0 -x {0.1 1073741824.0 2 ------- null}
+ -t 0.07086 -s 3 -d 1 -p prune -e 80 -c 30 -i 28 -a 30 -x {3.0 1.0 -1 ------- null}
- -t 0.07086 -s 3 -d 1 -p prune -e 80 -c 30 -i 28 -a 30 -x {3.0 1.0 -1 ------- null}
h -t 0.07086 -s 3 -d 1 -p prune -e 80 -c 30 -i 28 -a 30 -x {3.0 1.0 -1 ------- null}
r -t 0.07086 -s 1 -d 0 -p cbr -e 210 -c 0 -i 5 -a 0 -x {2.1 1073741825.0 2 ------- null}
+ -t 0.07086 -s 0 -d 1 -p prune -e 80 -c 30 -i 29 -a 30 -x {0.0 1.0 -1 ------- null}
- -t 0.07086 -s 0 -d 1 -p prune -e 80 -c 30 -i 29 -a 30 -x {0.0 1.0 -1 ------- null}
h -t 0.07086 -s 0 -d 1 -p prune -e 80 -c 30 -i 29 -a 30 -x {0.0 1.0 -1 ------- null}
r -t 0.07168 -s 0 -d 1 -p cbr -e 210 -c 0 -i 12 -a 0 -x {0.1 1073741824.0 4 ------- null}
+ -t 0.07168 -s 1 -d 0 -p prune -e 80 -c 30 -i 30 -a 30 -x {1.0 0.0 -1 ------- null}
- -t 0.07168 -s 1 -d 0 -p prune -e 80 -c 30 -i 30 -a 30 -x {1.0 0.0 -1 ------- null}
h -t 0.07168 -s 1 -d 0 -p prune -e 80 -c 30 -i 30 -a 30 -x {1.0 0.0 -1 ------- null}
r -t 0.07168 -s 2 -d 1 -p cbr -e 210 -c 0 -i 13 -a 0 -x {2.1 1073741825.0 4 ------- null}
+ -t 0.07168 -s 1 -d 2 -p prune -e 80 -c 30 -i 31 -a 30 -x {1.0 2.0 -1 ------- null}
- -t 0.07168 -s 1 -d 2 -p prune -e 80 -c 30 -i 31 -a 30 -x {1.0 2.0 -1 ------- null}
h -t 0.07168 -s 1 -d 2 -p prune -e 80 -c 30 -i 31 -a 30 -x {1.0 2.0 -1 ------- null}
+ -t 0.0725 -s 0 -d 1 -p cbr -e 210 -c 0 -i 32 -a 0 -x {0.1 1073741824.0 6 ------- null}
- -t 0.0725 -s 0 -d 1 -p cbr -e 210 -c 0 -i 32 -a 0 -x {0.1 1073741824.0 6 ------- null}
h -t 0.0725 -s 0 -d 1 -p cbr -e 210 -c 0 -i 32 -a 0 -x {0.1 1073741824.0 -1 ------- null}
+ -t 0.0725 -s 2 -d 1 -p cbr -e 210 -c 0 -i 33 -a 0 -x {2.1 1073741825.0 6 ------- null}
- -t 0.0725 -s 2 -d 1 -p cbr -e 210 -c 0 -i 33 -a 0 -x {2.1 1073741825.0 6 ------- null}
h -t 0.0725 -s 2 -d 1 -p cbr -e 210 -c 0 -i 33 -a 0 -x {2.1 1073741825.0 -1 ------- null}
r -t 0.07254 -s 1 -d 4 -p cbr -e 210 -c 0 -i 5 -a 0 -x {2.1 1073741825.0 2 ------- null}
+ -t 0.07254 -s 4 -d 1 -p prune -e 80 -c 30 -i 34 -a 30 -x {4.0 1.0 -1 ------- null}
- -t 0.07254 -s 4 -d 1 -p prune -e 80 -c 30 -i 34 -a 30 -x {4.0 1.0 -1 ------- null}
h -t 0.07254 -s 4 -d 1 -p prune -e 80 -c 30 -i 34 -a 30 -x {4.0 1.0 -1 ------- null}
r -t 0.07254 -s 1 -d 3 -p cbr -e 210 -c 0 -i 5 -a 0 -x {2.1 1073741825.0 2 ------- null}
+ -t 0.07254 -s 3 -d 1 -p prune -e 80 -c 30 -i 35 -a 30 -x {3.0 1.0 -1 ------- null}
- -t 0.07254 -s 3 -d 1 -p prune -e 80 -c 30 -i 35 -a 30 -x {3.0 1.0 -1 ------- null}
h -t 0.07254 -s 3 -d 1 -p prune -e 80 -c 30 -i 35 -a 30 -x {3.0 1.0 -1 ------- null}
r -t 0.07275 -s 4 -d 1 -p prune -e 80 -c 30 -i 16 -a 30 -x {4.0 1.0 -1 ------- null}
r -t 0.07275 -s 2 -d 1 -p prune -e 80 -c 30 -i 17 -a 30 -x {2.0 1.0 -1 ------- null}
r -t 0.07275 -s 3 -d 1 -p prune -e 80 -c 30 -i 18 -a 30 -x {3.0 1.0 -1 ------- null}
r -t 0.07275 -s 0 -d 1 -p prune -e 80 -c 30 -i 19 -a 30 -x {0.0 1.0 -1 ------- null}
r -t 0.07443 -s 4 -d 1 -p prune -e 80 -c 30 -i 22 -a 30 -x {4.0 1.0 -1 ------- null}
r -t 0.07443 -s 3 -d 1 -p prune -e 80 -c 30 -i 23 -a 30 -x {3.0 1.0 -1 ------- null}
r -t 0.07461 -s 1 -d 4 -p cbr -e 210 -c 0 -i 6 -a 0 -x {0.1 1073741824.0 3 ------- null}
+ -t 0.07461 -s 4 -d 1 -p prune -e 80 -c 30 -i 36 -a 30 -x {4.0 1.0 -1 ------- null}
- -t 0.07461 -s 4 -d 1 -p prune -e 80 -c 30 -i 36 -a 30 -x {4.0 1.0 -1 ------- null}
h -t 0.07461 -s 4 -d 1 -p prune -e 80 -c 30 -i 36 -a 30 -x {4.0 1.0 -1 ------- null}
r -t 0.07461 -s 1 -d 2 -p cbr -e 210 -c 0 -i 6 -a 0 -x {0.1 1073741824.0 3 ------- null}
+ -t 0.07461 -s 2 -d 1 -p prune -e 80 -c 30 -i 37 -a 30 -x {2.0 1.0 -1 ------- null}
- -t 0.07461 -s 2 -d 1 -p prune -e 80 -c 30 -i 37 -a 30 -x {2.0 1.0 -1 ------- null}
h -t 0.07461 -s 2 -d 1 -p prune -e 80 -c 30 -i 37 -a 30 -x {2.0 1.0 -1 ------- null}
r -t 0.07461 -s 1 -d 3 -p cbr -e 210 -c 0 -i 6 -a 0 -x {0.1 1073741824.0 3 ------- null}
+ -t 0.07461 -s 3 -d 1 -p prune -e 80 -c 30 -i 38 -a 30 -x {3.0 1.0 -1 ------- null}
- -t 0.07461 -s 3 -d 1 -p prune -e 80 -c 30 -i 38 -a 30 -x {3.0 1.0 -1 ------- null}
h -t 0.07461 -s 3 -d 1 -p prune -e 80 -c 30 -i 38 -a 30 -x {3.0 1.0 -1 ------- null}
r -t 0.07461 -s 1 -d 0 -p cbr -e 210 -c 0 -i 7 -a 0 -x {2.1 1073741825.0 3 ------- null}
+ -t 0.07461 -s 0 -d 1 -p prune -e 80 -c 30 -i 39 -a 30 -x {0.0 1.0 -1 ------- null}
- -t 0.07461 -s 0 -d 1 -p prune -e 80 -c 30 -i 39 -a 30 -x {0.0 1.0 -1 ------- null}
h -t 0.07461 -s 0 -d 1 -p prune -e 80 -c 30 -i 39 -a 30 -x {0.0 1.0 -1 ------- null}
r -t 0.07525 -s 1 -d 0 -p prune -e 80 -c 30 -i 24 -a 30 -x {1.0 0.0 -1 ------- null}
r -t 0.07543 -s 0 -d 1 -p cbr -e 210 -c 0 -i 20 -a 0 -x {0.1 1073741824.0 5 ------- null}
+ -t 0.07543 -s 1 -d 0 -p prune -e 80 -c 30 -i 40 -a 30 -x {1.0 0.0 -1 ------- null}
- -t 0.07543 -s 1 -d 0 -p prune -e 80 -c 30 -i 40 -a 30 -x {1.0 0.0 -1 ------- null}
h -t 0.07543 -s 1 -d 0 -p prune -e 80 -c 30 -i 40 -a 30 -x {1.0 0.0 -1 ------- null}
r -t 0.07543 -s 2 -d 1 -p cbr -e 210 -c 0 -i 21 -a 0 -x {2.1 1073741825.0 5 ------- null}
+ -t 0.07543 -s 1 -d 2 -p prune -e 80 -c 30 -i 41 -a 30 -x {1.0 2.0 -1 ------- null}
- -t 0.07543 -s 1 -d 2 -p prune -e 80 -c 30 -i 41 -a 30 -x {1.0 2.0 -1 ------- null}
h -t 0.07543 -s 1 -d 2 -p prune -e 80 -c 30 -i 41 -a 30 -x {1.0 2.0 -1 ------- null}
+ -t 0.07625 -s 2 -d 1 -p cbr -e 210 -c 0 -i 43 -a 0 -x {2.1 1073741825.0 7 ------- null}
- -t 0.07625 -s 2 -d 1 -p cbr -e 210 -c 0 -i 43 -a 0 -x {2.1 1073741825.0 7 ------- null}
h -t 0.07625 -s 2 -d 1 -p cbr -e 210 -c 0 -i 43 -a 0 -x {2.1 1073741825.0 -1 ------- null}
r -t 0.07629 -s 1 -d 4 -p cbr -e 210 -c 0 -i 7 -a 0 -x {2.1 1073741825.0 3 ------- null}
+ -t 0.07629 -s 4 -d 1 -p prune -e 80 -c 30 -i 44 -a 30 -x {4.0 1.0 -1 ------- null}
- -t 0.07629 -s 4 -d 1 -p prune -e 80 -c 30 -i 44 -a 30 -x {4.0 1.0 -1 ------- null}
h -t 0.07629 -s 4 -d 1 -p prune -e 80 -c 30 -i 44 -a 30 -x {4.0 1.0 -1 ------- null}
r -t 0.07629 -s 1 -d 3 -p cbr -e 210 -c 0 -i 7 -a 0 -x {2.1 1073741825.0 3 ------- null}
+ -t 0.07629 -s 3 -d 1 -p prune -e 80 -c 30 -i 45 -a 30 -x {3.0 1.0 -1 ------- null}
- -t 0.07629 -s 3 -d 1 -p prune -e 80 -c 30 -i 45 -a 30 -x {3.0 1.0 -1 ------- null}
h -t 0.07629 -s 3 -d 1 -p prune -e 80 -c 30 -i 45 -a 30 -x {3.0 1.0 -1 ------- null}
r -t 0.07632 -s 1 -d 2 -p prune -e 80 -c 30 -i 25 -a 30 -x {1.0 2.0 -1 ------- null}
r -t 0.0765 -s 4 -d 1 -p prune -e 80 -c 30 -i 26 -a 30 -x {4.0 1.0 -1 ------- null}
r -t 0.0765 -s 2 -d 1 -p prune -e 80 -c 30 -i 27 -a 30 -x {2.0 1.0 -1 ------- null}
r -t 0.0765 -s 3 -d 1 -p prune -e 80 -c 30 -i 28 -a 30 -x {3.0 1.0 -1 ------- null}
r -t 0.0765 -s 0 -d 1 -p prune -e 80 -c 30 -i 29 -a 30 -x {0.0 1.0 -1 ------- null}
r -t 0.07732 -s 1 -d 0 -p prune -e 80 -c 30 -i 30 -a 30 -x {1.0 0.0 -1 ------- null}
r -t 0.07732 -s 1 -d 2 -p prune -e 80 -c 30 -i 31 -a 30 -x {1.0 2.0 -1 ------- null}
r -t 0.07818 -s 4 -d 1 -p prune -e 80 -c 30 -i 34 -a 30 -x {4.0 1.0 -1 ------- null}
r -t 0.07818 -s 3 -d 1 -p prune -e 80 -c 30 -i 35 -a 30 -x {3.0 1.0 -1 ------- null}
r -t 0.07918 -s 0 -d 1 -p cbr -e 210 -c 0 -i 32 -a 0 -x {0.1 1073741824.0 6 ------- null}
+ -t 0.07918 -s 1 -d 0 -p prune -e 80 -c 30 -i 46 -a 30 -x {1.0 0.0 -1 ------- null}
- -t 0.07918 -s 1 -d 0 -p prune -e 80 -c 30 -i 46 -a 30 -x {1.0 0.0 -1 ------- null}
h -t 0.07918 -s 1 -d 0 -p prune -e 80 -c 30 -i 46 -a 30 -x {1.0 0.0 -1 ------- null}
r -t 0.07918 -s 2 -d 1 -p cbr -e 210 -c 0 -i 33 -a 0 -x {2.1 1073741825.0 6 ------- null}
+ -t 0.07918 -s 1 -d 2 -p prune -e 80 -c 30 -i 47 -a 30 -x {1.0 2.0 -1 ------- null}
- -t 0.07918 -s 1 -d 2 -p prune -e 80 -c 30 -i 47 -a 30 -x {1.0 2.0 -1 ------- null}
h -t 0.07918 -s 1 -d 2 -p prune -e 80 -c 30 -i 47 -a 30 -x {1.0 2.0 -1 ------- null}
r -t 0.08025 -s 4 -d 1 -p prune -e 80 -c 30 -i 36 -a 30 -x {4.0 1.0 -1 ------- null}
r -t 0.08025 -s 2 -d 1 -p prune -e 80 -c 30 -i 37 -a 30 -x {2.0 1.0 -1 ------- null}
r -t 0.08025 -s 3 -d 1 -p prune -e 80 -c 30 -i 38 -a 30 -x {3.0 1.0 -1 ------- null}
r -t 0.08025 -s 0 -d 1 -p prune -e 80 -c 30 -i 39 -a 30 -x {0.0 1.0 -1 ------- null}
r -t 0.08107 -s 1 -d 0 -p prune -e 80 -c 30 -i 40 -a 30 -x {1.0 0.0 -1 ------- null}
r -t 0.08107 -s 1 -d 2 -p prune -e 80 -c 30 -i 41 -a 30 -x {1.0 2.0 -1 ------- null}
r -t 0.08193 -s 4 -d 1 -p prune -e 80 -c 30 -i 44 -a 30 -x {4.0 1.0 -1 ------- null}
r -t 0.08193 -s 3 -d 1 -p prune -e 80 -c 30 -i 45 -a 30 -x {3.0 1.0 -1 ------- null}
r -t 0.08293 -s 2 -d 1 -p cbr -e 210 -c 0 -i 43 -a 0 -x {2.1 1073741825.0 7 ------- null}
+ -t 0.08293 -s 1 -d 2 -p prune -e 80 -c 30 -i 50 -a 30 -x {1.0 2.0 -1 ------- null}
- -t 0.08293 -s 1 -d 2 -p prune -e 80 -c 30 -i 50 -a 30 -x {1.0 2.0 -1 ------- null}
h -t 0.08293 -s 1 -d 2 -p prune -e 80 -c 30 -i 50 -a 30 -x {1.0 2.0 -1 ------- null}
r -t 0.08482 -s 1 -d 0 -p prune -e 80 -c 30 -i 46 -a 30 -x {1.0 0.0 -1 ------- null}
r -t 0.08482 -s 1 -d 2 -p prune -e 80 -c 30 -i 47 -a 30 -x {1.0 2.0 -1 ------- null}
r -t 0.08857 -s 1 -d 2 -p prune -e 80 -c 30 -i 50 -a 30 -x {1.0 2.0 -1 ------- null}
v -t 0.1 -e sim_annotation 0.1 0.10000000000000001 3 join-group 1073741824
+ -t 0.1 -s 3 -d 1 -p graft -e 80 -c 31 -i 61 -a 31 -x {3.0 1.0 -1 ------- null}
- -t 0.1 -s 3 -d 1 -p graft -e 80 -c 31 -i 61 -a 31 -x {3.0 1.0 -1 ------- null}
h -t 0.1 -s 3 -d 1 -p graft -e 80 -c 31 -i 61 -a 31 -x {3.0 1.0 -1 ------- null}
r -t 0.10564 -s 3 -d 1 -p graft -e 80 -c 31 -i 61 -a 31 -x {3.0 1.0 -1 ------- null}
+ -t 0.10564 -s 1 -d 0 -p graft -e 80 -c 31 -i 64 -a 31 -x {1.0 0.0 -1 ------- null}
- -t 0.10564 -s 1 -d 0 -p graft -e 80 -c 31 -i 64 -a 31 -x {1.0 0.0 -1 ------- null}
h -t 0.10564 -s 1 -d 0 -p graft -e 80 -c 31 -i 64 -a 31 -x {1.0 0.0 -1 ------- null}
r -t 0.11128 -s 1 -d 0 -p graft -e 80 -c 31 -i 64 -a 31 -x {1.0 0.0 -1 ------- null}
+ -t 0.11375 -s 0 -d 1 -p cbr -e 210 -c 0 -i 69 -a 0 -x {0.1 1073741824.0 17 ------- null}
- -t 0.11375 -s 0 -d 1 -p cbr -e 210 -c 0 -i 69 -a 0 -x {0.1 1073741824.0 17 ------- null}
h -t 0.11375 -s 0 -d 1 -p cbr -e 210 -c 0 -i 69 -a 0 -x {0.1 1073741824.0 -1 ------- null}
+ -t 0.1175 -s 0 -d 1 -p cbr -e 210 -c 0 -i 71 -a 0 -x {0.1 1073741824.0 18 ------- null}
- -t 0.1175 -s 0 -d 1 -p cbr -e 210 -c 0 -i 71 -a 0 -x {0.1 1073741824.0 18 ------- null}
h -t 0.1175 -s 0 -d 1 -p cbr -e 210 -c 0 -i 71 -a 0 -x {0.1 1073741824.0 -1 ------- null}
v -t 0.12 -e sim_annotation 0.12 0.12 4 join-group 1073741824
+ -t 0.12 -s 4 -d 1 -p graft -e 80 -c 31 -i 73 -a 31 -x {4.0 1.0 -1 ------- null}
- -t 0.12 -s 4 -d 1 -p graft -e 80 -c 31 -i 73 -a 31 -x {4.0 1.0 -1 ------- null}
h -t 0.12 -s 4 -d 1 -p graft -e 80 -c 31 -i 73 -a 31 -x {4.0 1.0 -1 ------- null}
r -t 0.12043 -s 0 -d 1 -p cbr -e 210 -c 0 -i 69 -a 0 -x {0.1 1073741824.0 17 ------- null}
+ -t 0.12043 -s 1 -d 3 -p cbr -e 210 -c 0 -i 69 -a 0 -x {0.1 1073741824.0 17 ------- null}
- -t 0.12043 -s 1 -d 3 -p cbr -e 210 -c 0 -i 69 -a 0 -x {0.1 1073741824.0 17 ------- null}
h -t 0.12043 -s 1 -d 3 -p cbr -e 210 -c 0 -i 69 -a 0 -x {0.1 1073741824.0 -1 ------- null}
+ -t 0.12125 -s 0 -d 1 -p cbr -e 210 -c 0 -i 74 -a 0 -x {0.1 1073741824.0 19 ------- null}
- -t 0.12125 -s 0 -d 1 -p cbr -e 210 -c 0 -i 74 -a 0 -x {0.1 1073741824.0 19 ------- null}
h -t 0.12125 -s 0 -d 1 -p cbr -e 210 -c 0 -i 74 -a 0 -x {0.1 1073741824.0 -1 ------- null}
r -t 0.12418 -s 0 -d 1 -p cbr -e 210 -c 0 -i 71 -a 0 -x {0.1 1073741824.0 18 ------- null}
+ -t 0.12418 -s 1 -d 3 -p cbr -e 210 -c 0 -i 71 -a 0 -x {0.1 1073741824.0 18 ------- null}
- -t 0.12418 -s 1 -d 3 -p cbr -e 210 -c 0 -i 71 -a 0 -x {0.1 1073741824.0 18 ------- null}
h -t 0.12418 -s 1 -d 3 -p cbr -e 210 -c 0 -i 71 -a 0 -x {0.1 1073741824.0 -1 ------- null}
+ -t 0.125 -s 0 -d 1 -p cbr -e 210 -c 0 -i 76 -a 0 -x {0.1 1073741824.0 20 ------- null}
- -t 0.125 -s 0 -d 1 -p cbr -e 210 -c 0 -i 76 -a 0 -x {0.1 1073741824.0 20 ------- null}
h -t 0.125 -s 0 -d 1 -p cbr -e 210 -c 0 -i 76 -a 0 -x {0.1 1073741824.0 -1 ------- null}
r -t 0.12564 -s 4 -d 1 -p graft -e 80 -c 31 -i 73 -a 31 -x {4.0 1.0 -1 ------- null}
r -t 0.12711 -s 1 -d 3 -p cbr -e 210 -c 0 -i 69 -a 0 -x {0.1 1073741824.0 17 ------- null}
r -t 0.12793 -s 0 -d 1 -p cbr -e 210 -c 0 -i 74 -a 0 -x {0.1 1073741824.0 19 ------- null}
+ -t 0.12793 -s 1 -d 3 -p cbr -e 210 -c 0 -i 74 -a 0 -x {0.1 1073741824.0 19 ------- null}
- -t 0.12793 -s 1 -d 3 -p cbr -e 210 -c 0 -i 74 -a 0 -x {0.1 1073741824.0 19 ------- null}
h -t 0.12793 -s 1 -d 3 -p cbr -e 210 -c 0 -i 74 -a 0 -x {0.1 1073741824.0 -1 ------- null}
+ -t 0.12793 -s 1 -d 4 -p cbr -e 210 -c 0 -i 74 -a 0 -x {0.1 1073741824.0 19 ------- null}
- -t 0.12793 -s 1 -d 4 -p cbr -e 210 -c 0 -i 74 -a 0 -x {0.1 1073741824.0 19 ------- null}
h -t 0.12793 -s 1 -d 4 -p cbr -e 210 -c 0 -i 74 -a 0 -x {0.1 1073741824.0 -1 ------- null}
+ -t 0.12875 -s 0 -d 1 -p cbr -e 210 -c 0 -i 78 -a 0 -x {0.1 1073741824.0 21 ------- null}
- -t 0.12875 -s 0 -d 1 -p cbr -e 210 -c 0 -i 78 -a 0 -x {0.1 1073741824.0 21 ------- null}
h -t 0.12875 -s 0 -d 1 -p cbr -e 210 -c 0 -i 78 -a 0 -x {0.1 1073741824.0 -1 ------- null}
r -t 0.13086 -s 1 -d 3 -p cbr -e 210 -c 0 -i 71 -a 0 -x {0.1 1073741824.0 18 ------- null}
r -t 0.13168 -s 0 -d 1 -p cbr -e 210 -c 0 -i 76 -a 0 -x {0.1 1073741824.0 20 ------- null}
+ -t 0.13168 -s 1 -d 3 -p cbr -e 210 -c 0 -i 76 -a 0 -x {0.1 1073741824.0 20 ------- null}