V -t * -v 1.0a5 -a 0
A -t * -n 1 -p 0 -o 0x7fffffff -c 30 -a 1
A -t * -h 1 -m 1073741823 -s 0
n -t * -a 4 -s 4 -S UP -v circle -c black -i black
n -t * -a 0 -s 0 -S UP -v circle -c black -i black
n -t * -a 5 -s 5 -S UP -v circle -c black -i black
n -t * -a 1 -s 1 -S UP -v circle -c black -i black
n -t * -a 6 -s 6 -S UP -v circle -c black -i black
n -t * -a 2 -s 2 -S UP -v circle -c black -i black
n -t * -a 3 -s 3 -S UP -v circle -c black -i black
l -t * -s 0 -d 4 -S UP -r 1000000 -D 0.01 -c black
l -t * -s 0 -d 1 -S UP -r 1000000 -D 0.01 -c black -o right
l -t * -s 1 -d 2 -S UP -r 1000000 -D 0.01 -c black -o right-down
l -t * -s 2 -d 3 -S UP -r 1000000 -D 0.01 -c black -o down
l -t * -s 3 -d 4 -S UP -r 1000000 -D 0.01 -c black -o left-down
l -t * -s 4 -d 5 -S UP -r 1000000 -D 0.01 -c black -o left
l -t * -s 5 -d 6 -S UP -r 1000000 -D 0.01 -c black -o left-up
l -t * -s 6 -d 0 -S UP -r 1000000 -D 0.01 -c black -o right-up
+ -t 0.000169788487334637 -s 0 -d 1 -p rtProtoDV -e 7 -c 0 -i 0 -a 0 -x {0.2 1.1 -1 ------- null}
- -t 0.000169788487334637 -s 0 -d 1 -p rtProtoDV -e 7 -c 0 -i 0 -a 0 -x {0.2 1.1 -1 ------- null}
h -t 0.000169788487334637 -s 0 -d 1 -p rtProtoDV -e 7 -c 0 -i 0 -a 0 -x {0.2 1.1 -1 ------- null}
+ -t 0.000169788487334637 -s 0 -d 4 -p rtProtoDV -e 7 -c 0 -i 1 -a 0 -x {0.2 4.1 -1 ------- null}
- -t 0.000169788487334637 -s 0 -d 4 -p rtProtoDV -e 7 -c 0 -i 1 -a 0 -x {0.2 4.1 -1 ------- null}
h -t 0.000169788487334637 -s 0 -d 4 -p rtProtoDV -e 7 -c 0 -i 1 -a 0 -x {0.2 4.1 -1 ------- null}
+ -t 0.000169788487334637 -s 0 -d 6 -p rtProtoDV -e 7 -c 0 -i 2 -a 0 -x {0.2 6.1 -1 ------- null}
- -t 0.000169788487334637 -s 0 -d 6 -p rtProtoDV -e 7 -c 0 -i 2 -a 0 -x {0.2 6.1 -1 ------- null}
h -t 0.000169788487334637 -s 0 -d 6 -p rtProtoDV -e 7 -c 0 -i 2 -a 0 -x {0.2 6.1 -1 ------- null}
+ -t 0.00710233021858257 -s 2 -d 1 -p rtProtoDV -e 7 -c 0 -i 3 -a 0 -x {2.1 1.1 -1 ------- null}
- -t 0.00710233021858257 -s 2 -d 1 -p rtProtoDV -e 7 -c 0 -i 3 -a 0 -x {2.1 1.1 -1 ------- null}
h -t 0.00710233021858257 -s 2 -d 1 -p rtProtoDV -e 7 -c 0 -i 3 -a 0 -x {2.1 1.1 -1 ------- null}
+ -t 0.00710233021858257 -s 2 -d 3 -p rtProtoDV -e 7 -c 0 -i 4 -a 0 -x {2.1 3.2 -1 ------- null}
- -t 0.00710233021858257 -s 2 -d 3 -p rtProtoDV -e 7 -c 0 -i 4 -a 0 -x {2.1 3.2 -1 ------- null}
h -t 0.00710233021858257 -s 2 -d 3 -p rtProtoDV -e 7 -c 0 -i 4 -a 0 -x {2.1 3.2 -1 ------- null}
r -t 0.0102257884873346 -s 0 -d 1 -p rtProtoDV -e 7 -c 0 -i 0 -a 0 -x {0.2 1.1 -1 ------- null}
+ -t 0.0102257884873346 -s 1 -d 0 -p rtProtoDV -e 7 -c 0 -i 6 -a 0 -x {1.1 0.2 -1 ------- null}
- -t 0.0102257884873346 -s 1 -d 0 -p rtProtoDV -e 7 -c 0 -i 6 -a 0 -x {1.1 0.2 -1 ------- null}
h -t 0.0102257884873346 -s 1 -d 0 -p rtProtoDV -e 7 -c 0 -i 6 -a 0 -x {1.1 0.2 -1 ------- null}
+ -t 0.0102257884873346 -s 1 -d 2 -p rtProtoDV -e 7 -c 0 -i 7 -a 0 -x {1.1 2.1 -1 ------- null}
- -t 0.0102257884873346 -s 1 -d 2 -p rtProtoDV -e 7 -c 0 -i 7 -a 0 -x {1.1 2.1 -1 ------- null}
h -t 0.0102257884873346 -s 1 -d 2 -p rtProtoDV -e 7 -c 0 -i 7 -a 0 -x {1.1 2.1 -1 ------- null}
r -t 0.0102257884873346 -s 0 -d 4 -p rtProtoDV -e 7 -c 0 -i 1 -a 0 -x {0.2 4.1 -1 ------- null}
+ -t 0.0102257884873346 -s 4 -d 0 -p rtProtoDV -e 7 -c 0 -i 8 -a 0 -x {4.1 0.2 -1 ------- null}
- -t 0.0102257884873346 -s 4 -d 0 -p rtProtoDV -e 7 -c 0 -i 8 -a 0 -x {4.1 0.2 -1 ------- null}
h -t 0.0102257884873346 -s 4 -d 0 -p rtProtoDV -e 7 -c 0 -i 8 -a 0 -x {4.1 0.2 -1 ------- null}
+ -t 0.0102257884873346 -s 4 -d 3 -p rtProtoDV -e 7 -c 0 -i 9 -a 0 -x {4.1 3.2 -1 ------- null}
- -t 0.0102257884873346 -s 4 -d 3 -p rtProtoDV -e 7 -c 0 -i 9 -a 0 -x {4.1 3.2 -1 ------- null}
h -t 0.0102257884873346 -s 4 -d 3 -p rtProtoDV -e 7 -c 0 -i 9 -a 0 -x {4.1 3.2 -1 ------- null}
+ -t 0.0102257884873346 -s 4 -d 5 -p rtProtoDV -e 7 -c 0 -i 10 -a 0 -x {4.1 5.1 -1 ------- null}
- -t 0.0102257884873346 -s 4 -d 5 -p rtProtoDV -e 7 -c 0 -i 10 -a 0 -x {4.1 5.1 -1 ------- null}
h -t 0.0102257884873346 -s 4 -d 5 -p rtProtoDV -e 7 -c 0 -i 10 -a 0 -x {4.1 5.1 -1 ------- null}
r -t 0.0102257884873346 -s 0 -d 6 -p rtProtoDV -e 7 -c 0 -i 2 -a 0 -x {0.2 6.1 -1 ------- null}
+ -t 0.0102257884873346 -s 6 -d 0 -p rtProtoDV -e 7 -c 0 -i 11 -a 0 -x {6.1 0.2 -1 ------- null}
- -t 0.0102257884873346 -s 6 -d 0 -p rtProtoDV -e 7 -c 0 -i 11 -a 0 -x {6.1 0.2 -1 ------- null}
h -t 0.0102257884873346 -s 6 -d 0 -p rtProtoDV -e 7 -c 0 -i 11 -a 0 -x {6.1 0.2 -1 ------- null}
+ -t 0.0102257884873346 -s 6 -d 5 -p rtProtoDV -e 7 -c 0 -i 12 -a 0 -x {6.1 5.1 -1 ------- null}
- -t 0.0102257884873346 -s 6 -d 5 -p rtProtoDV -e 7 -c 0 -i 12 -a 0 -x {6.1 5.1 -1 ------- null}
h -t 0.0102257884873346 -s 6 -d 5 -p rtProtoDV -e 7 -c 0 -i 12 -a 0 -x {6.1 5.1 -1 ------- null}
r -t 0.0171583302185826 -s 2 -d 1 -p rtProtoDV -e 7 -c 0 -i 3 -a 0 -x {2.1 1.1 -1 ------- null}
+ -t 0.0171583302185826 -s 1 -d 0 -p rtProtoDV -e 7 -c 0 -i 14 -a 0 -x {1.1 0.2 -1 ------- null}
- -t 0.0171583302185826 -s 1 -d 0 -p rtProtoDV -e 7 -c 0 -i 14 -a 0 -x {1.1 0.2 -1 ------- null}
h -t 0.0171583302185826 -s 1 -d 0 -p rtProtoDV -e 7 -c 0 -i 14 -a 0 -x {1.1 0.2 -1 ------- null}
+ -t 0.0171583302185826 -s 1 -d 2 -p rtProtoDV -e 7 -c 0 -i 15 -a 0 -x {1.1 2.1 -1 ------- null}
- -t 0.0171583302185826 -s 1 -d 2 -p rtProtoDV -e 7 -c 0 -i 15 -a 0 -x {1.1 2.1 -1 ------- null}
h -t 0.0171583302185826 -s 1 -d 2 -p rtProtoDV -e 7 -c 0 -i 15 -a 0 -x {1.1 2.1 -1 ------- null}
r -t 0.0171583302185826 -s 2 -d 3 -p rtProtoDV -e 7 -c 0 -i 4 -a 0 -x {2.1 3.2 -1 ------- null}
+ -t 0.0171583302185826 -s 3 -d 2 -p rtProtoDV -e 7 -c 0 -i 16 -a 0 -x {3.2 2.1 -1 ------- null}
- -t 0.0171583302185826 -s 3 -d 2 -p rtProtoDV -e 7 -c 0 -i 16 -a 0 -x {3.2 2.1 -1 ------- null}
h -t 0.0171583302185826 -s 3 -d 2 -p rtProtoDV -e 7 -c 0 -i 16 -a 0 -x {3.2 2.1 -1 ------- null}
+ -t 0.0171583302185826 -s 3 -d 4 -p rtProtoDV -e 7 -c 0 -i 17 -a 0 -x {3.2 4.1 -1 ------- null}
- -t 0.0171583302185826 -s 3 -d 4 -p rtProtoDV -e 7 -c 0 -i 17 -a 0 -x {3.2 4.1 -1 ------- null}
h -t 0.0171583302185826 -s 3 -d 4 -p rtProtoDV -e 7 -c 0 -i 17 -a 0 -x {3.2 4.1 -1 ------- null}
r -t 0.0202817884873346 -s 1 -d 0 -p rtProtoDV -e 7 -c 0 -i 6 -a 0 -x {1.1 0.2 -1 ------- null}
+ -t 0.0202817884873346 -s 0 -d 1 -p rtProtoDV -e 7 -c 0 -i 19 -a 0 -x {0.2 1.1 -1 ------- null}
- -t 0.0202817884873346 -s 0 -d 1 -p rtProtoDV -e 7 -c 0 -i 19 -a 0 -x {0.2 1.1 -1 ------- null}
h -t 0.0202817884873346 -s 0 -d 1 -p rtProtoDV -e 7 -c 0 -i 19 -a 0 -x {0.2 1.1 -1 ------- null}
+ -t 0.0202817884873346 -s 0 -d 4 -p rtProtoDV -e 7 -c 0 -i 20 -a 0 -x {0.2 4.1 -1 ------- null}
- -t 0.0202817884873346 -s 0 -d 4 -p rtProtoDV -e 7 -c 0 -i 20 -a 0 -x {0.2 4.1 -1 ------- null}
h -t 0.0202817884873346 -s 0 -d 4 -p rtProtoDV -e 7 -c 0 -i 20 -a 0 -x {0.2 4.1 -1 ------- null}
+ -t 0.0202817884873346 -s 0 -d 6 -p rtProtoDV -e 7 -c 0 -i 21 -a 0 -x {0.2 6.1 -1 ------- null}
- -t 0.0202817884873346 -s 0 -d 6 -p rtProtoDV -e 7 -c 0 -i 21 -a 0 -x {0.2 6.1 -1 ------- null}
h -t 0.0202817884873346 -s 0 -d 6 -p rtProtoDV -e 7 -c 0 -i 21 -a 0 -x {0.2 6.1 -1 ------- null}
r -t 0.0202817884873346 -s 1 -d 2 -p rtProtoDV -e 7 -c 0 -i 7 -a 0 -x {1.1 2.1 -1 ------- null}
+ -t 0.0202817884873346 -s 2 -d 1 -p rtProtoDV -e 7 -c 0 -i 22 -a 0 -x {2.1 1.1 -1 ------- null}
- -t 0.0202817884873346 -s 2 -d 1 -p rtProtoDV -e 7 -c 0 -i 22 -a 0 -x {2.1 1.1 -1 ------- null}
h -t 0.0202817884873346 -s 2 -d 1 -p rtProtoDV -e 7 -c 0 -i 22 -a 0 -x {2.1 1.1 -1 ------- null}
+ -t 0.0202817884873346 -s 2 -d 3 -p rtProtoDV -e 7 -c 0 -i 23 -a 0 -x {2.1 3.2 -1 ------- null}
- -t 0.0202817884873346 -s 2 -d 3 -p rtProtoDV -e 7 -c 0 -i 23 -a 0 -x {2.1 3.2 -1 ------- null}
h -t 0.0202817884873346 -s 2 -d 3 -p rtProtoDV -e 7 -c 0 -i 23 -a 0 -x {2.1 3.2 -1 ------- null}
r -t 0.0202817884873346 -s 4 -d 0 -p rtProtoDV -e 7 -c 0 -i 8 -a 0 -x {4.1 0.2 -1 ------- null}
+ -t 0.0202817884873346 -s 0 -d 1 -p rtProtoDV -e 7 -c 0 -i 24 -a 0 -x {0.2 1.1 -1 ------- null}
+ -t 0.0202817884873346 -s 0 -d 4 -p rtProtoDV -e 7 -c 0 -i 25 -a 0 -x {0.2 4.1 -1 ------- null}
+ -t 0.0202817884873346 -s 0 -d 6 -p rtProtoDV -e 7 -c 0 -i 26 -a 0 -x {0.2 6.1 -1 ------- null}
r -t 0.0202817884873346 -s 4 -d 3 -p rtProtoDV -e 7 -c 0 -i 9 -a 0 -x {4.1 3.2 -1 ------- null}
+ -t 0.0202817884873346 -s 3 -d 2 -p rtProtoDV -e 7 -c 0 -i 27 -a 0 -x {3.2 2.1 -1 ------- null}
- -t 0.0202817884873346 -s 3 -d 2 -p rtProtoDV -e 7 -c 0 -i 27 -a 0 -x {3.2 2.1 -1 ------- null}
h -t 0.0202817884873346 -s 3 -d 2 -p rtProtoDV -e 7 -c 0 -i 27 -a 0 -x {3.2 2.1 -1 ------- null}
+ -t 0.0202817884873346 -s 3 -d 4 -p rtProtoDV -e 7 -c 0 -i 28 -a 0 -x {3.2 4.1 -1 ------- null}
- -t 0.0202817884873346 -s 3 -d 4 -p rtProtoDV -e 7 -c 0 -i 28 -a 0 -x {3.2 4.1 -1 ------- null}
h -t 0.0202817884873346 -s 3 -d 4 -p rtProtoDV -e 7 -c 0 -i 28 -a 0 -x {3.2 4.1 -1 ------- null}
r -t 0.0202817884873346 -s 4 -d 5 -p rtProtoDV -e 7 -c 0 -i 10 -a 0 -x {4.1 5.1 -1 ------- null}
+ -t 0.0202817884873346 -s 5 -d 4 -p rtProtoDV -e 7 -c 0 -i 29 -a 0 -x {5.1 4.1 -1 ------- null}
- -t 0.0202817884873346 -s 5 -d 4 -p rtProtoDV -e 7 -c 0 -i 29 -a 0 -x {5.1 4.1 -1 ------- null}
h -t 0.0202817884873346 -s 5 -d 4 -p rtProtoDV -e 7 -c 0 -i 29 -a 0 -x {5.1 4.1 -1 ------- null}
+ -t 0.0202817884873346 -s 5 -d 6 -p rtProtoDV -e 7 -c 0 -i 30 -a 0 -x {5.1 6.1 -1 ------- null}
- -t 0.0202817884873346 -s 5 -d 6 -p rtProtoDV -e 7 -c 0 -i 30 -a 0 -x {5.1 6.1 -1 ------- null}
h -t 0.0202817884873346 -s 5 -d 6 -p rtProtoDV -e 7 -c 0 -i 30 -a 0 -x {5.1 6.1 -1 ------- null}
r -t 0.0202817884873346 -s 6 -d 0 -p rtProtoDV -e 7 -c 0 -i 11 -a 0 -x {6.1 0.2 -1 ------- null}
r -t 0.0202817884873346 -s 6 -d 5 -p rtProtoDV -e 7 -c 0 -i 12 -a 0 -x {6.1 5.1 -1 ------- null}
- -t 0.0203377884873346 -s 0 -d 1 -p rtProtoDV -e 7 -c 0 -i 24 -a 0 -x {0.2 1.1 -1 ------- null}
h -t 0.0203377884873346 -s 0 -d 1 -p rtProtoDV -e 7 -c 0 -i 24 -a 0 -x {0.2 1.1 -1 ------- null}
- -t 0.0203377884873346 -s 0 -d 4 -p rtProtoDV -e 7 -c 0 -i 25 -a 0 -x {0.2 4.1 -1 ------- null}
h -t 0.0203377884873346 -s 0 -d 4 -p rtProtoDV -e 7 -c 0 -i 25 -a 0 -x {0.2 4.1 -1 ------- null}
- -t 0.0203377884873346 -s 0 -d 6 -p rtProtoDV -e 7 -c 0 -i 26 -a 0 -x {0.2 6.1 -1 ------- null}
h -t 0.0203377884873346 -s 0 -d 6 -p rtProtoDV -e 7 -c 0 -i 26 -a 0 -x {0.2 6.1 -1 ------- null}
+ -t 0.025 -s 0 -d 4 -p cbr -e 500 -c 0 -i 31 -a 0 -x {0.0 3.0 3 ------- null}
- -t 0.025 -s 0 -d 4 -p cbr -e 500 -c 0 -i 31 -a 0 -x {0.0 3.0 3 ------- null}
h -t 0.025 -s 0 -d 4 -p cbr -e 500 -c 0 -i 31 -a 0 -x {0.0 3.0 -1 ------- null}
r -t 0.0272143302185826 -s 1 -d 0 -p rtProtoDV -e 7 -c 0 -i 14 -a 0 -x {1.1 0.2 -1 ------- null}
r -t 0.0272143302185826 -s 1 -d 2 -p rtProtoDV -e 7 -c 0 -i 15 -a 0 -x {1.1 2.1 -1 ------- null}
r -t 0.0272143302185826 -s 3 -d 2 -p rtProtoDV -e 7 -c 0 -i 16 -a 0 -x {3.2 2.1 -1 ------- null}
+ -t 0.0272143302185826 -s 2 -d 1 -p rtProtoDV -e 7 -c 0 -i 32 -a 0 -x {2.1 1.1 -1 ------- null}
- -t 0.0272143302185826 -s 2 -d 1 -p rtProtoDV -e 7 -c 0 -i 32 -a 0 -x {2.1 1.1 -1 ------- null}
h -t 0.0272143302185826 -s 2 -d 1 -p rtProtoDV -e 7 -c 0 -i 32 -a 0 -x {2.1 1.1 -1 ------- null}
+ -t 0.0272143302185826 -s 2 -d 3 -p rtProtoDV -e 7 -c 0 -i 33 -a 0 -x {2.1 3.2 -1 ------- null}
- -t 0.0272143302185826 -s 2 -d 3 -p rtProtoDV -e 7 -c 0 -i 33 -a 0 -x {2.1 3.2 -1 ------- null}
h -t 0.0272143302185826 -s 2 -d 3 -p rtProtoDV -e 7 -c 0 -i 33 -a 0 -x {2.1 3.2 -1 ------- null}
r -t 0.0272143302185826 -s 3 -d 4 -p rtProtoDV -e 7 -c 0 -i 17 -a 0 -x {3.2 4.1 -1 ------- null}
+ -t 0.0272143302185826 -s 4 -d 0 -p rtProtoDV -e 7 -c 0 -i 34 -a 0 -x {4.1 0.2 -1 ------- null}
- -t 0.0272143302185826 -s 4 -d 0 -p rtProtoDV -e 7 -c 0 -i 34 -a 0 -x {4.1 0.2 -1 ------- null}
h -t 0.0272143302185826 -s 4 -d 0 -p rtProtoDV -e 7 -c 0 -i 34 -a 0 -x {4.1 0.2 -1 ------- null}
+ -t 0.0272143302185826 -s 4 -d 3 -p rtProtoDV -e 7 -c 0 -i 35 -a 0 -x {4.1 3.2 -1 ------- null}
- -t 0.0272143302185826 -s 4 -d 3 -p rtProtoDV -e 7 -c 0 -i 35 -a 0 -x {4.1 3.2 -1 ------- null}
h -t 0.0272143302185826 -s 4 -d 3 -p rtProtoDV -e 7 -c 0 -i 35 -a 0 -x {4.1 3.2 -1 ------- null}
+ -t 0.0272143302185826 -s 4 -d 5 -p rtProtoDV -e 7 -c 0 -i 36 -a 0 -x {4.1 5.1 -1 ------- null}
- -t 0.0272143302185826 -s 4 -d 5 -p rtProtoDV -e 7 -c 0 -i 36 -a 0 -x {4.1 5.1 -1 ------- null}
h -t 0.0272143302185826 -s 4 -d 5 -p rtProtoDV -e 7 -c 0 -i 36 -a 0 -x {4.1 5.1 -1 ------- null}
+ -t 0.03 -s 0 -d 4 -p cbr -e 500 -c 0 -i 37 -a 0 -x {0.0 3.0 4 ------- null}
- -t 0.03 -s 0 -d 4 -p cbr -e 500 -c 0 -i 37 -a 0 -x {0.0 3.0 4 ------- null}
h -t 0.03 -s 0 -d 4 -p cbr -e 500 -c 0 -i 37 -a 0 -x {0.0 3.0 -1 ------- null}
r -t 0.0303377884873346 -s 0 -d 1 -p rtProtoDV -e 7 -c 0 -i 19 -a 0 -x {0.2 1.1 -1 ------- null}
r -t 0.0303377884873346 -s 0 -d 4 -p rtProtoDV -e 7 -c 0 -i 20 -a 0 -x {0.2 4.1 -1 ------- null}
r -t 0.0303377884873346 -s 0 -d 6 -p rtProtoDV -e 7 -c 0 -i 21 -a 0 -x {0.2 6.1 -1 ------- null}
+ -t 0.0303377884873346 -s 6 -d 0 -p rtProtoDV -e 7 -c 0 -i 38 -a 0 -x {6.1 0.2 -1 ------- null}
- -t 0.0303377884873346 -s 6 -d 0 -p rtProtoDV -e 7 -c 0 -i 38 -a 0 -x {6.1 0.2 -1 ------- null}
h -t 0.0303377884873346 -s 6 -d 0 -p rtProtoDV -e 7 -c 0 -i 38 -a 0 -x {6.1 0.2 -1 ------- null}
+ -t 0.0303377884873346 -s 6 -d 5 -p rtProtoDV -e 7 -c 0 -i 39 -a 0 -x {6.1 5.1 -1 ------- null}
- -t 0.0303377884873346 -s 6 -d 5 -p rtProtoDV -e 7 -c 0 -i 39 -a 0 -x {6.1 5.1 -1 ------- null}
h -t 0.0303377884873346 -s 6 -d 5 -p rtProtoDV -e 7 -c 0 -i 39 -a 0 -x {6.1 5.1 -1 ------- null}
r -t 0.0303377884873346 -s 2 -d 1 -p rtProtoDV -e 7 -c 0 -i 22 -a 0 -x {2.1 1.1 -1 ------- null}
r -t 0.0303377884873346 -s 2 -d 3 -p rtProtoDV -e 7 -c 0 -i 23 -a 0 -x {2.1 3.2 -1 ------- null}
r -t 0.0303377884873346 -s 3 -d 2 -p rtProtoDV -e 7 -c 0 -i 27 -a 0 -x {3.2 2.1 -1 ------- null}
+ -t 0.0303377884873346 -s 2 -d 1 -p rtProtoDV -e 7 -c 0 -i 40 -a 0 -x {2.1 1.1 -1 ------- null}
- -t 0.0303377884873346 -s 2 -d 1 -p rtProtoDV -e 7 -c 0 -i 40 -a 0 -x {2.1 1.1 -1 ------- null}
h -t 0.0303377884873346 -s 2 -d 1 -p rtProtoDV -e 7 -c 0 -i 40 -a 0 -x {2.1 1.1 -1 ------- null}
+ -t 0.0303377884873346 -s 2 -d 3 -p rtProtoDV -e 7 -c 0 -i 41 -a 0 -x {2.1 3.2 -1 ------- null}
- -t 0.0303377884873346 -s 2 -d 3 -p rtProtoDV -e 7 -c 0 -i 41 -a 0 -x {2.1 3.2 -1 ------- null}
h -t 0.0303377884873346 -s 2 -d 3 -p rtProtoDV -e 7 -c 0 -i 41 -a 0 -x {2.1 3.2 -1 ------- null}
r -t 0.0303377884873346 -s 3 -d 4 -p rtProtoDV -e 7 -c 0 -i 28 -a 0 -x {3.2 4.1 -1 ------- null}
r -t 0.0303377884873346 -s 5 -d 4 -p rtProtoDV -e 7 -c 0 -i 29 -a 0 -x {5.1 4.1 -1 ------- null}
r -t 0.0303377884873346 -s 5 -d 6 -p rtProtoDV -e 7 -c 0 -i 30 -a 0 -x {5.1 6.1 -1 ------- null}
+ -t 0.0303377884873346 -s 6 -d 0 -p rtProtoDV -e 7 -c 0 -i 42 -a 0 -x {6.1 0.2 -1 ------- null}
+ -t 0.0303377884873346 -s 6 -d 5 -p rtProtoDV -e 7 -c 0 -i 43 -a 0 -x {6.1 5.1 -1 ------- null}
r -t 0.0303937884873346 -s 0 -d 1 -p rtProtoDV -e 7 -c 0 -i 24 -a 0 -x {0.2 1.1 -1 ------- null}
+ -t 0.0303937884873346 -s 1 -d 0 -p rtProtoDV -e 7 -c 0 -i 44 -a 0 -x {1.1 0.2 -1 ------- null}
- -t 0.0303937884873346 -s 1 -d 0 -p rtProtoDV -e 7 -c 0 -i 44 -a 0 -x {1.1 0.2 -1 ------- null}
h -t 0.0303937884873346 -s 1 -d 0 -p rtProtoDV -e 7 -c 0 -i 44 -a 0 -x {1.1 0.2 -1 ------- null}
+ -t 0.0303937884873346 -s 1 -d 2 -p rtProtoDV -e 7 -c 0 -i 45 -a 0 -x {1.1 2.1 -1 ------- null}
- -t 0.0303937884873346 -s 1 -d 2 -p rtProtoDV -e 7 -c 0 -i 45 -a 0 -x {1.1 2.1 -1 ------- null}
h -t 0.0303937884873346 -s 1 -d 2 -p rtProtoDV -e 7 -c 0 -i 45 -a 0 -x {1.1 2.1 -1 ------- null}
r -t 0.0303937884873346 -s 0 -d 4 -p rtProtoDV -e 7 -c 0 -i 25 -a 0 -x {0.2 4.1 -1 ------- null}
r -t 0.0303937884873346 -s 0 -d 6 -p rtProtoDV -e 7 -c 0 -i 26 -a 0 -x {0.2 6.1 -1 ------- null}
- -t 0.0303937884873346 -s 6 -d 0 -p rtProtoDV -e 7 -c 0 -i 42 -a 0 -x {6.1 0.2 -1 ------- null}
h -t 0.0303937884873346 -s 6 -d 0 -p rtProtoDV -e 7 -c 0 -i 42 -a 0 -x {6.1 0.2 -1 ------- null}
- -t 0.0303937884873346 -s 6 -d 5 -p rtProtoDV -e 7 -c 0 -i 43 -a 0 -x {6.1 5.1 -1 ------- null}
h -t 0.0303937884873346 -s 6 -d 5 -p rtProtoDV -e 7 -c 0 -i 43 -a 0 -x {6.1 5.1 -1 ------- null}
+ -t 0.035 -s 0 -d 4 -p cbr -e 500 -c 0 -i 46 -a 0 -x {0.0 3.0 5 ------- null}
- -t 0.035 -s 0 -d 4 -p cbr -e 500 -c 0 -i 46 -a 0 -x {0.0 3.0 5 ------- null}
h -t 0.035 -s 0 -d 4 -p cbr -e 500 -c 0 -i 46 -a 0 -x {0.0 3.0 -1 ------- null}
r -t 0.0372703302185826 -s 2 -d 1 -p rtProtoDV -e 7 -c 0 -i 32 -a 0 -x {2.1 1.1 -1 ------- null}
r -t 0.0372703302185826 -s 2 -d 3 -p rtProtoDV -e 7 -c 0 -i 33 -a 0 -x {2.1 3.2 -1 ------- null}
r -t 0.0372703302185826 -s 4 -d 0 -p rtProtoDV -e 7 -c 0 -i 34 -a 0 -x {4.1 0.2 -1 ------- null}
r -t 0.0372703302185826 -s 4 -d 3 -p rtProtoDV -e 7 -c 0 -i 35 -a 0 -x {4.1 3.2 -1 ------- null}
r -t 0.0372703302185826 -s 4 -d 5 -p rtProtoDV -e 7 -c 0 -i 36 -a 0 -x {4.1 5.1 -1 ------- null}
+ -t 0.0372703302185826 -s 5 -d 4 -p rtProtoDV -e 7 -c 0 -i 47 -a 0 -x {5.1 4.1 -1 ------- null}
- -t 0.0372703302185826 -s 5 -d 4 -p rtProtoDV -e 7 -c 0 -i 47 -a 0 -x {5.1 4.1 -1 ------- null}
h -t 0.0372703302185826 -s 5 -d 4 -p rtProtoDV -e 7 -c 0 -i 47 -a 0 -x {5.1 4.1 -1 ------- null}
+ -t 0.0372703302185826 -s 5 -d 6 -p rtProtoDV -e 7 -c 0 -i 48 -a 0 -x {5.1 6.1 -1 ------- null}
- -t 0.0372703302185826 -s 5 -d 6 -p rtProtoDV -e 7 -c 0 -i 48 -a 0 -x {5.1 6.1 -1 ------- null}
h -t 0.0372703302185826 -s 5 -d 6 -p rtProtoDV -e 7 -c 0 -i 48 -a 0 -x {5.1 6.1 -1 ------- null}
r -t 0.039 -s 0 -d 4 -p cbr -e 500 -c 0 -i 31 -a 0 -x {0.0 3.0 3 ------- null}
+ -t 0.039 -s 4 -d 3 -p cbr -e 500 -c 0 -i 31 -a 0 -x {0.0 3.0 3 ------- null}
- -t 0.039 -s 4 -d 3 -p cbr -e 500 -c 0 -i 31 -a 0 -x {0.0 3.0 3 ------- null}
h -t 0.039 -s 4 -d 3 -p cbr -e 500 -c 0 -i 31 -a 0 -x {0.0 3.0 -1 ------- null}
+ -t 0.04 -s 0 -d 4 -p cbr -e 500 -c 0 -i 49 -a 0 -x {0.0 3.0 6 ------- null}
- -t 0.04 -s 0 -d 4 -p cbr -e 500 -c 0 -i 49 -a 0 -x {0.0 3.0 6 ------- null}
h -t 0.04 -s 0 -d 4 -p cbr -e 500 -c 0 -i 49 -a 0 -x {0.0 3.0 -1 ------- null}
r -t 0.0403937884873346 -s 6 -d 0 -p rtProtoDV -e 7 -c 0 -i 38 -a 0 -x {6.1 0.2 -1 ------- null}
r -t 0.0403937884873346 -s 6 -d 5 -p rtProtoDV -e 7 -c 0 -i 39 -a 0 -x {6.1 5.1 -1 ------- null}
r -t 0.0403937884873346 -s 2 -d 1 -p rtProtoDV -e 7 -c 0 -i 40 -a 0 -x {2.1 1.1 -1 ------- null}
r -t 0.0403937884873346 -s 2 -d 3 -p rtProtoDV -e 7 -c 0 -i 41 -a 0 -x {2.1 3.2 -1 ------- null}
r -t 0.0404497884873346 -s 1 -d 0 -p rtProtoDV -e 7 -c 0 -i 44 -a 0 -x {1.1 0.2 -1 ------- null}
r -t 0.0404497884873346 -s 1 -d 2 -p rtProtoDV -e 7 -c 0 -i 45 -a 0 -x {1.1 2.1 -1 ------- null}
r -t 0.0404497884873346 -s 6 -d 0 -p rtProtoDV -e 7 -c 0 -i 42 -a 0 -x {6.1 0.2 -1 ------- null}
r -t 0.0404497884873346 -s 6 -d 5 -p rtProtoDV -e 7 -c 0 -i 43 -a 0 -x {6.1 5.1 -1 ------- null}
r -t 0.044 -s 0 -d 4 -p cbr -e 500 -c 0 -i 37 -a 0 -x {0.0 3.0 4 ------- null}
+ -t 0.044 -s 4 -d 3 -p cbr -e 500 -c 0 -i 37 -a 0 -x {0.0 3.0 4 ------- null}
- -t 0.044 -s 4 -d 3 -p cbr -e 500 -c 0 -i 37 -a 0 -x {0.0 3.0 4 ------- null}
h -t 0.044 -s 4 -d 3 -p cbr -e 500 -c 0 -i 37 -a 0 -x {0.0 3.0 -1 ------- null}
+ -t 0.04406133552271 -s 3 -d 2 -p rtProtoDV -e 7 -c 0 -i 50 -a 0 -x {3.2 2.1 -1 ------- null}
- -t 0.04406133552271 -s 3 -d 2 -p rtProtoDV -e 7 -c 0 -i 50 -a 0 -x {3.2 2.1 -1 ------- null}
h -t 0.04406133552271 -s 3 -d 2 -p rtProtoDV -e 7 -c 0 -i 50 -a 0 -x {3.2 2.1 -1 ------- null}
+ -t 0.04406133552271 -s 3 -d 4 -p rtProtoDV -e 7 -c 0 -i 51 -a 0 -x {3.2 4.1 -1 ------- null}
- -t 0.04406133552271 -s 3 -d 4 -p rtProtoDV -e 7 -c 0 -i 51 -a 0 -x {3.2 4.1 -1 ------- null}
h -t 0.04406133552271 -s 3 -d 4 -p rtProtoDV -e 7 -c 0 -i 51 -a 0 -x {3.2 4.1 -1 ------- null}
+ -t 0.045 -s 0 -d 4 -p cbr -e 500 -c 0 -i 52 -a 0 -x {0.0 3.0 7 ------- null}
- -t 0.045 -s 0 -d 4 -p cbr -e 500 -c 0 -i 52 -a 0 -x {0.0 3.0 7 ------- null}
h -t 0.045 -s 0 -d 4 -p cbr -e 500 -c 0 -i 52 -a 0 -x {0.0 3.0 -1 ------- null}
r -t 0.0473263302185826 -s 5 -d 4 -p rtProtoDV -e 7 -c 0 -i 47 -a 0 -x {5.1 4.1 -1 ------- null}
r -t 0.0473263302185826 -s 5 -d 6 -p rtProtoDV -e 7 -c 0 -i 48 -a 0 -x {5.1 6.1 -1 ------- null}
r -t 0.049 -s 0 -d 4 -p cbr -e 500 -c 0 -i 46 -a 0 -x {0.0 3.0 5 ------- null}
+ -t 0.049 -s 4 -d 3 -p cbr -e 500 -c 0 -i 46 -a 0 -x {0.0 3.0 5 ------- null}
- -t 0.049 -s 4 -d 3 -p cbr -e 500 -c 0 -i 46 -a 0 -x {0.0 3.0 5 ------- null}
h -t 0.049 -s 4 -d 3 -p cbr -e 500 -c 0 -i 46 -a 0 -x {0.0 3.0 -1 ------- null}
+ -t 0.05 -s 0 -d 4 -p cbr -e 500 -c 0 -i 53 -a 0 -x {0.0 3.0 8 ------- null}
- -t 0.05 -s 0 -d 4 -p cbr -e 500 -c 0 -i 53 -a 0 -x {0.0 3.0 8 ------- null}
h -t 0.05 -s 0 -d 4 -p cbr -e 500 -c 0 -i 53 -a 0 -x {0.0 3.0 -1 ------- null}
r -t 0.053 -s 4 -d 3 -p cbr -e 500 -c 0 -i 31 -a 0 -x {0.0 3.0 3 ------- null}
r -t 0.054 -s 0 -d 4 -p cbr -e 500 -c 0 -i 49 -a 0 -x {0.0 3.0 6 ------- null}
+ -t 0.054 -s 4 -d 3 -p cbr -e 500 -c 0 -i 49 -a 0 -x {0.0 3.0 6 ------- null}
- -t 0.054 -s 4 -d 3 -p cbr -e 500 -c 0 -i 49 -a 0 -x {0.0 3.0 6 ------- null}
h -t 0.054 -s 4 -d 3 -p cbr -e 500 -c 0 -i 49 -a 0 -x {0.0 3.0 -1 ------- null}
r -t 0.05411733552271 -s 3 -d 2 -p rtProtoDV -e 7 -c 0 -i 50 -a 0 -x {3.2 2.1 -1 ------- null}
r -t 0.05411733552271 -s 3 -d 4 -p rtProtoDV -e 7 -c 0 -i 51 -a 0 -x {3.2 4.1 -1 ------- null}
+ -t 0.055 -s 0 -d 4 -p cbr -e 500 -c 0 -i 54 -a 0 -x {0.0 3.0 9 ------- null}
- -t 0.055 -s 0 -d 4 -p cbr -e 500 -c 0 -i 54 -a 0 -x {0.0 3.0 9 ------- null}
h -t 0.055 -s 0 -d 4 -p cbr -e 500 -c 0 -i 54 -a 0 -x {0.0 3.0 -1 ------- null}
r -t 0.058 -s 4 -d 3 -p cbr -e 500 -c 0 -i 37 -a 0 -x {0.0 3.0 4 ------- null}
r -t 0.059 -s 0 -d 4 -p cbr -e 500 -c 0 -i 52 -a 0 -x {0.0 3.0 7 ------- null}
+ -t 0.059 -s 4 -d 3 -p cbr -e 500 -c 0 -i 52 -a 0 -x {0.0 3.0 7 ------- null}
- -t 0.059 -s 4 -d 3 -p cbr -e 500 -c 0 -i 52 -a 0 -x {0.0 3.0 7 ------- null}
h -t 0.059 -s 4 -d 3 -p cbr -e 500 -c 0 -i 52 -a 0 -x {0.0 3.0 -1 ------- null}
+ -t 0.06 -s 0 -d 4 -p cbr -e 500 -c 0 -i 55 -a 0 -x {0.0 3.0 10 ------- null}
- -t 0.06 -s 0 -d 4 -p cbr -e 500 -c 0 -i 55 -a 0 -x {0.0 3.0 10 ------- null}
h -t 0.06 -s 0 -d 4 -p cbr -e 500 -c 0 -i 55 -a 0 -x {0.0 3.0 -1 ------- null}
r -t 0.063 -s 4 -d 3 -p cbr -e 500 -c 0 -i 46 -a 0 -x {0.0 3.0 5 ------- null}
r -t 0.064 -s 0 -d 4 -p cbr -e 500 -c 0 -i 53 -a 0 -x {0.0 3.0 8 ------- null}
+ -t 0.064 -s 4 -d 3 -p cbr -e 500 -c 0 -i 53 -a 0 -x {0.0 3.0 8 ------- null}
- -t 0.064 -s 4 -d 3 -p cbr -e 500 -c 0 -i 53 -a 0 -x {0.0 3.0 8 ------- null}
h -t 0.064 -s 4 -d 3 -p cbr -e 500 -c 0 -i 53 -a 0 -x {0.0 3.0 -1 ------- null}
+ -t 0.065 -s 0 -d 4 -p cbr -e 500 -c 0 -i 56 -a 0 -x {0.0 3.0 11 ------- null}
- -t 0.065 -s 0 -d 4 -p cbr -e 500 -c 0 -i 56 -a 0 -x {0.0 3.0 11 ------- null}
h -t 0.065 -s 0 -d 4 -p cbr -e 500 -c 0 -i 56 -a 0 -x {0.0 3.0 -1 ------- null}
r -t 0.068 -s 4 -d 3 -p cbr -e 500 -c 0 -i 49 -a 0 -x {0.0 3.0 6 ------- null}
r -t 0.069 -s 0 -d 4 -p cbr -e 500 -c 0 -i 54 -a 0 -x {0.0 3.0 9 ------- null}
+ -t 0.069 -s 4 -d 3 -p cbr -e 500 -c 0 -i 54 -a 0 -x {0.0 3.0 9 ------- null}
- -t 0.069 -s 4 -d 3 -p cbr -e 500 -c 0 -i 54 -a 0 -x {0.0 3.0 9 ------- null}
h -t 0.069 -s 4 -d 3 -p cbr -e 500 -c 0 -i 54 -a 0 -x {0.0 3.0 -1 ------- null}
+ -t 0.07 -s 0 -d 4 -p cbr -e 500 -c 0 -i 57 -a 0 -x {0.0 3.0 12 ------- null}
- -t 0.07 -s 0 -d 4 -p cbr -e 500 -c 0 -i 57 -a 0 -x {0.0 3.0 12 ------- null}
h -t 0.07 -s 0 -d 4 -p cbr -e 500 -c 0 -i 57 -a 0 -x {0.0 3.0 -1 ------- null}
r -t 0.073 -s 4 -d 3 -p cbr -e 500 -c 0 -i 52 -a 0 -x {0.0 3.0 7 ------- null}
r -t 0.074 -s 0 -d 4 -p cbr -e 500 -c 0 -i 55 -a 0 -x {0.0 3.0 10 ------- null}
+ -t 0.074 -s 4 -d 3 -p cbr -e 500 -c 0 -i 55 -a 0 -x {0.0 3.0 10 ------- null}
- -t 0.074 -s 4 -d 3 -p cbr -e 500 -c 0 -i 55 -a 0 -x {0.0 3.0 10 ------- null}
h -t 0.074 -s 4 -d 3 -p cbr -e 500 -c 0 -i 55 -a 0 -x {0.0 3.0 -1 ------- null}
+ -t 0.075 -s 0 -d 4 -p cbr -e 500 -c 0 -i 58 -a 0 -x {0.0 3.0 13 ------- null}
- -t 0.075 -s 0 -d 4 -p cbr -e 500 -c 0 -i 58 -a 0 -x {0.0 3.0 13 ------- null}
h -t 0.075 -s 0 -d 4 -p cbr -e 500 -c 0 -i 58 -a 0 -x {0.0 3.0 -1 ------- null}
r -t 0.078 -s 4 -d 3 -p cbr -e 500 -c 0 -i 53 -a 0 -x {0.0 3.0 8 ------- null}
r -t 0.079 -s 0 -d 4 -p cbr -e 500 -c 0 -i 56 -a 0 -x {0.0 3.0 11 ------- null}
+ -t 0.079 -s 4 -d 3 -p cbr -e 500 -c 0 -i 56 -a 0 -x {0.0 3.0 11 ------- null}
- -t 0.079 -s 4 -d 3 -p cbr -e 500 -c 0 -i 56 -a 0 -x {0.0 3.0 11 ------- null}
h -t 0.079 -s 4 -d 3 -p cbr -e 500 -c 0 -i 56 -a 0 -x {0.0 3.0 -1 ------- null}
+ -t 0.08 -s 0 -d 4 -p cbr -e 500 -c 0 -i 59 -a 0 -x {0.0 3.0 14 ------- null}
- -t 0.08 -s 0 -d 4 -p cbr -e 500 -c 0 -i 59 -a 0 -x {0.0 3.0 14 ------- null}
h -t 0.08 -s 0 -d 4 -p cbr -e 500 -c 0 -i 59 -a 0 -x {0.0 3.0 -1 ------- null}
r -t 0.083 -s 4 -d 3 -p cbr -e 500 -c 0 -i 54 -a 0 -x {0.0 3.0 9 ------- null}
r -t 0.084 -s 0 -d 4 -p cbr -e 500 -c 0 -i 57 -a 0 -x {0.0 3.0 12 ------- null}
+ -t 0.084 -s 4 -d 3 -p cbr -e 500 -c 0 -i 57 -a 0 -x {0.0 3.0 12 ------- null}
- -t 0.084 -s 4 -d 3 -p cbr -e 500 -c 0 -i 57 -a 0 -x {0.0 3.0 12 ------- null}
h -t 0.084 -s 4 -d 3 -p cbr -e 500 -c 0 -i 57 -a 0 -x {0.0 3.0 -1 ------- null}
+ -t 0.085 -s 0 -d 4 -p cbr -e 500 -c 0 -i 60 -a 0 -x {0.0 3.0 15 ------- null}
- -t 0.085 -s 0 -d 4 -p cbr -e 500 -c 0 -i 60 -a 0 -x {0.0 3.0 15 ------- null}
h -t 0.085 -s 0 -d 4 -p cbr -e 500 -c 0 -i 60 -a 0 -x {0.0 3.0 -1 ------- null}
r -t 0.088 -s 4 -d 3 -p cbr -e 500 -c 0 -i 55 -a 0 -x {0.0 3.0 10 ------- null}
r -t 0.089 -s 0 -d 4 -p cbr -e 500 -c 0 -i 58 -a 0 -x {0.0 3.0 13 ------- null}
+ -t 0.089 -s 4 -d 3 -p cbr -e 500 -c 0 -i 58 -a 0 -x {0.0 3.0 13 ------- null}
- -t 0.089 -s 4 -d 3 -p cbr -e 500 -c 0 -i 58 -a 0 -x {0.0 3.0 13 ------- null}
h -t 0.089 -s 4 -d 3 -p cbr -e 500 -c 0 -i 58 -a 0 -x {0.0 3.0 -1 ------- null}
+ -t 0.09 -s 0 -d 4 -p cbr -e 500 -c 0 -i 61 -a 0 -x {0.0 3.0 16 ------- null}
- -t 0.09 -s 0 -d 4 -p cbr -e 500 -c 0 -i 61 -a 0 -x {0.0 3.0 16 ------- null}
h -t 0.09 -s 0 -d 4 -p cbr -e 500 -c 0 -i 61 -a 0 -x {0.0 3.0 -1 ------- null}
r -t 0.093 -s 4 -d 3 -p cbr -e 500 -c 0 -i 56 -a 0 -x {0.0 3.0 11 ------- null}
r -t 0.094 -s 0 -d 4 -p cbr -e 500 -c 0 -i 59 -a 0 -x {0.0 3.0 14 ------- null}
+ -t 0.094 -s 4 -d 3 -p cbr -e 500 -c 0 -i 59 -a 0 -x {0.0 3.0 14 ------- null}
- -t 0.094 -s 4 -d 3 -p cbr -e 500 -c 0 -i 59 -a 0 -x {0.0 3.0 14 ------- null}
h -t 0.094 -s 4 -d 3 -p cbr -e 500 -c 0 -i 59 -a 0 -x {0.0 3.0 -1 ------- null}
+ -t 0.095 -s 0 -d 4 -p cbr -e 500 -c 0 -i 62 -a 0 -x {0.0 3.0 17 ------- null}
- -t 0.095 -s 0 -d 4 -p cbr -e 500 -c 0 -i 62 -a 0 -x {0.0 3.0 17 ------- null}
h -t 0.095 -s 0 -d 4 -p cbr -e 500 -c 0 -i 62 -a 0 -x {0.0 3.0 -1 ------- null}
r -t 0.098 -s 4 -d 3 -p cbr -e 500 -c 0 -i 57 -a 0 -x {0.0 3.0 12 ------- null}
r -t 0.099 -s 0 -d 4 -p cbr -e 500 -c 0 -i 60 -a 0 -x {0.0 3.0 15 ------- null}
+ -t 0.099 -s 4 -d 3 -p cbr -e 500 -c 0 -i 60 -a 0 -x {0.0 3.0 15 ------- null}
- -t 0.099 -s 4 -d 3 -p cbr -e 500 -c 0 -i 60 -a 0 -x {0.0 3.0 15 ------- null}
h -t 0.099 -s 4 -d 3 -p cbr -e 500 -c 0 -i 60 -a 0 -x {0.0 3.0 -1 ------- null}
l -t 0.10000000000000001 -s 4 -d 0 -S DOWN
v -t 0.10000000000000001 link-down 0.10000000000000001 4 0
l -t 0.10000000000000001 -s 4 -d 0 -S DOWN
v -t 0.10000000000000001 link-down 0.10000000000000001 4 0
d -t 0.1 -s 0 -d 4 -p cbr -e 500 -c 0 -i 61 -a 0 -x {0.0 3.0 16 ------- null}
d -t 0.1 -s 0 -d 4 -p cbr -e 500 -c 0 -i 62 -a 0 -x {0.0 3.0 17 ------- null}
l -t 0.10000000000000001 -s 0 -d 4 -S DOWN
v -t 0.10000000000000001 link-down 0.10000000000000001 0 4
l -t 0.10000000000000001 -s 0 -d 4 -S DOWN
v -t 0.10000000000000001 link-down 0.10000000000000001 0 4
+ -t 0.1 -s 4 -d 3 -p rtProtoDV -e 7 -c 0 -i 63 -a 0 -x {4.1 3.2 -1 ------- null}
+ -t 0.1 -s 4 -d 5 -p rtProtoDV -e 7 -c 0 -i 64 -a 0 -x {4.1 5.1 -1 ------- null}
- -t 0.1 -s 4 -d 5 -p rtProtoDV -e 7 -c 0 -i 64 -a 0 -x {4.1 5.1 -1 ------- null}
h -t 0.1 -s 4 -d 5 -p rtProtoDV -e 7 -c 0 -i 64 -a 0 -x {4.1 5.1 -1 ------- null}
+ -t 0.1 -s 0 -d 1 -p rtProtoDV -e 7 -c 0 -i 65 -a 0 -x {0.2 1.1 -1 ------- null}
- -t 0.1 -s 0 -d 1 -p rtProtoDV -e 7 -c 0 -i 65 -a 0 -x {0.2 1.1 -1 ------- null}
h -t 0.1 -s 0 -d 1 -p rtProtoDV -e 7 -c 0 -i 65 -a 0 -x {0.2 1.1 -1 ------- null}
+ -t 0.1 -s 0 -d 6 -p rtProtoDV -e 7 -c 0 -i 66 -a 0 -x {0.2 6.1 -1 ------- null}
- -t 0.1 -s 0 -d 6 -p rtProtoDV -e 7 -c 0 -i 66 -a 0 -x {0.2 6.1 -1 ------- null}
h -t 0.1 -s 0 -d 6 -p rtProtoDV -e 7 -c 0 -i 66 -a 0 -x {0.2 6.1 -1 ------- null}
+ -t 0.1 -s 0 -d 1 -p cbr -e 500 -c 0 -i 67 -a 0 -x {0.0 3.0 18 ------- null}
- -t 0.100056 -s 0 -d 1 -p cbr -e 500 -c 0 -i 67 -a 0 -x {0.0 3.0 18 ------- null}
h -t 0.100056 -s 0 -d 1 -p cbr -e 500 -c 0 -i 67 -a 0 -x {0.0 3.0 -1 ------- null}
r -t 0.103 -s 4 -d 3 -p cbr -e 500 -c 0 -i 58 -a 0 -x {0.0 3.0 13 ------- null}
- -t 0.103 -s 4 -d 3 -p rtProtoDV -e 7 -c 0 -i 63 -a 0 -x {4.1 3.2 -1 ------- null}
h -t 0.103 -s 4 -d 3 -p rtProtoDV -e 7 -c 0 -i 63 -a 0 -x {4.1 3.2 -1 ------- null}
+ -t 0.105 -s 0 -d 1 -p cbr -e 500 -c 0 -i 68 -a 0 -x {0.0 3.0 19 ------- null}
- -t 0.105 -s 0 -d 1 -p cbr -e 500 -c 0 -i 68 -a 0 -x {0.0 3.0 19 ------- null}
h -t 0.105 -s 0 -d 1 -p cbr -e 500 -c 0 -i 68 -a 0 -x {0.0 3.0 -1 ------- null}
r -t 0.108 -s 4 -d 3 -p cbr -e 500 -c 0 -i 59 -a 0 -x {0.0 3.0 14 ------- null}
+ -t 0.11 -s 0 -d 1 -p cbr -e 500 -c 0 -i 69 -a 0 -x {0.0 3.0 20 ------- null}
- -t 0.11 -s 0 -d 1 -p cbr -e 500 -c 0 -i 69 -a 0 -x {0.0 3.0 20 ------- null}
h -t 0.11 -s 0 -d 1 -p cbr -e 500 -c 0 -i 69 -a 0 -x {0.0 3.0 -1 ------- null}
r -t 0.110056 -s 4 -d 5 -p rtProtoDV -e 7 -c 0 -i 64 -a 0 -x {4.1 5.1 -1 ------- null}
+ -t 0.110056 -s 5 -d 4 -p rtProtoDV -e 7 -c 0 -i 70 -a 0 -x {5.1 4.1 -1 ------- null}
- -t 0.110056 -s 5 -d 4 -p rtProtoDV -e 7 -c 0 -i 70 -a 0 -x {5.1 4.1 -1 ------- null}
h -t 0.110056 -s 5 -d 4 -p rtProtoDV -e 7 -c 0 -i 70 -a 0 -x {5.1 4.1 -1 ------- null}
+ -t 0.110056 -s 5 -d 6 -p rtProtoDV -e 7 -c 0 -i 71 -a 0 -x {5.1 6.1 -1 ------- null}
- -t 0.110056 -s 5 -d 6 -p rtProtoDV -e 7 -c 0 -i 71 -a 0 -x {5.1 6.1 -1 ------- null}
h -t 0.110056 -s 5 -d 6 -p rtProtoDV -e 7 -c 0 -i 71 -a 0 -x {5.1 6.1 -1 ------- null}
r -t 0.110056 -s 0 -d 1 -p rtProtoDV -e 7 -c 0 -i 65 -a 0 -x {0.2 1.1 -1 ------- null}