V -t * -v 1.0a5 -a 0
A -t * -n 1 -p 0 -o 0x7fffffff -c 30 -a 1
A -t * -h 1 -m 1073741823 -s 0
c -t * -i 4 -n Red
c -t * -i 1 -n Blue
c -t * -i 3 -n Green
n -t * -a 4 -s 4 -S UP -v circle -c black -i black
n -t * -a 0 -s 0 -S UP -v circle -c black -i black
n -t * -a 5 -s 5 -S UP -v circle -c black -i black
n -t * -a 1 -s 1 -S UP -v circle -c black -i black
n -t * -a 2 -s 2 -S UP -v circle -c black -i black
n -t * -a 3 -s 3 -S UP -v circle -c black -i black
l -t * -s 0 -d 1 -S UP -r 1000000 -D 0.01 -c black -o right
l -t * -s 1 -d 2 -S UP -r 2000000 -D 0.02 -c black -o right-down
l -t * -s 2 -d 3 -S UP -r 1000000 -D 0.01 -c black -o left-down
l -t * -s 3 -d 4 -S UP -r 2000000 -D 0.02 -c black -o left
l -t * -s 4 -d 5 -S UP -r 1000000 -D 0.01 -c black -o left-up
l -t * -s 5 -d 0 -S UP -r 2000000 -D 0.02 -c black -o right-up
q -t * -s 3 -d 4 -a 0.5
q -t * -s 4 -d 3 -a 0.5
q -t * -s 4 -d 5 -a 0.5
q -t * -s 5 -d 4 -a 0.5
q -t * -s 0 -d 1 -a 0.5
q -t * -s 1 -d 0 -a 0.5
q -t * -s 1 -d 2 -a 0.5
q -t * -s 2 -d 1 -a 0.5
q -t * -s 0 -d 5 -a 0.5
q -t * -s 2 -d 3 -a 0.5
q -t * -s 3 -d 2 -a 0.5
q -t * -s 5 -d 0 -a 0.5
+ -t 0.1 -s 3 -d 2 -p cbr -e 1000 -c 1 -i 0 -a 1 -x {3.0 2.0 0 ------- null}
- -t 0.1 -s 3 -d 2 -p cbr -e 1000 -c 1 -i 0 -a 1 -x {3.0 2.0 0 ------- null}
h -t 0.1 -s 3 -d 2 -p cbr -e 1000 -c 1 -i 0 -a 1 -x {3.0 2.0 -1 ------- null}
+ -t 0.108 -s 3 -d 2 -p cbr -e 1000 -c 1 -i 1 -a 1 -x {3.0 2.0 1 ------- null}
- -t 0.108 -s 3 -d 2 -p cbr -e 1000 -c 1 -i 1 -a 1 -x {3.0 2.0 1 ------- null}
h -t 0.108 -s 3 -d 2 -p cbr -e 1000 -c 1 -i 1 -a 1 -x {3.0 2.0 -1 ------- null}
+ -t 0.116 -s 3 -d 2 -p cbr -e 1000 -c 1 -i 2 -a 1 -x {3.0 2.0 2 ------- null}
- -t 0.116 -s 3 -d 2 -p cbr -e 1000 -c 1 -i 2 -a 1 -x {3.0 2.0 2 ------- null}
h -t 0.116 -s 3 -d 2 -p cbr -e 1000 -c 1 -i 2 -a 1 -x {3.0 2.0 -1 ------- null}
r -t 0.118 -s 3 -d 2 -p cbr -e 1000 -c 1 -i 0 -a 1 -x {3.0 2.0 0 ------- null}
+ -t 0.124 -s 3 -d 2 -p cbr -e 1000 -c 1 -i 3 -a 1 -x {3.0 2.0 3 ------- null}
- -t 0.124 -s 3 -d 2 -p cbr -e 1000 -c 1 -i 3 -a 1 -x {3.0 2.0 3 ------- null}
h -t 0.124 -s 3 -d 2 -p cbr -e 1000 -c 1 -i 3 -a 1 -x {3.0 2.0 -1 ------- null}
r -t 0.126 -s 3 -d 2 -p cbr -e 1000 -c 1 -i 1 -a 1 -x {3.0 2.0 1 ------- null}
+ -t 0.132 -s 3 -d 2 -p cbr -e 1000 -c 1 -i 4 -a 1 -x {3.0 2.0 4 ------- null}
- -t 0.132 -s 3 -d 2 -p cbr -e 1000 -c 1 -i 4 -a 1 -x {3.0 2.0 4 ------- null}
h -t 0.132 -s 3 -d 2 -p cbr -e 1000 -c 1 -i 4 -a 1 -x {3.0 2.0 -1 ------- null}
r -t 0.134 -s 3 -d 2 -p cbr -e 1000 -c 1 -i 2 -a 1 -x {3.0 2.0 2 ------- null}
+ -t 0.14 -s 3 -d 2 -p cbr -e 1000 -c 1 -i 5 -a 1 -x {3.0 2.0 5 ------- null}
- -t 0.14 -s 3 -d 2 -p cbr -e 1000 -c 1 -i 5 -a 1 -x {3.0 2.0 5 ------- null}
h -t 0.14 -s 3 -d 2 -p cbr -e 1000 -c 1 -i 5 -a 1 -x {3.0 2.0 -1 ------- null}
r -t 0.142 -s 3 -d 2 -p cbr -e 1000 -c 1 -i 3 -a 1 -x {3.0 2.0 3 ------- null}
+ -t 0.148 -s 3 -d 2 -p cbr -e 1000 -c 1 -i 6 -a 1 -x {3.0 2.0 6 ------- null}
- -t 0.148 -s 3 -d 2 -p cbr -e 1000 -c 1 -i 6 -a 1 -x {3.0 2.0 6 ------- null}
h -t 0.148 -s 3 -d 2 -p cbr -e 1000 -c 1 -i 6 -a 1 -x {3.0 2.0 -1 ------- null}
r -t 0.15 -s 3 -d 2 -p cbr -e 1000 -c 1 -i 4 -a 1 -x {3.0 2.0 4 ------- null}
+ -t 0.156 -s 3 -d 2 -p cbr -e 1000 -c 1 -i 7 -a 1 -x {3.0 2.0 7 ------- null}
- -t 0.156 -s 3 -d 2 -p cbr -e 1000 -c 1 -i 7 -a 1 -x {3.0 2.0 7 ------- null}
h -t 0.156 -s 3 -d 2 -p cbr -e 1000 -c 1 -i 7 -a 1 -x {3.0 2.0 -1 ------- null}
r -t 0.158 -s 3 -d 2 -p cbr -e 1000 -c 1 -i 5 -a 1 -x {3.0 2.0 5 ------- null}
+ -t 0.164 -s 3 -d 2 -p cbr -e 1000 -c 1 -i 8 -a 1 -x {3.0 2.0 8 ------- null}
- -t 0.164 -s 3 -d 2 -p cbr -e 1000 -c 1 -i 8 -a 1 -x {3.0 2.0 8 ------- null}
h -t 0.164 -s 3 -d 2 -p cbr -e 1000 -c 1 -i 8 -a 1 -x {3.0 2.0 -1 ------- null}
r -t 0.166 -s 3 -d 2 -p cbr -e 1000 -c 1 -i 6 -a 1 -x {3.0 2.0 6 ------- null}
+ -t 0.172 -s 3 -d 2 -p cbr -e 1000 -c 1 -i 9 -a 1 -x {3.0 2.0 9 ------- null}
- -t 0.172 -s 3 -d 2 -p cbr -e 1000 -c 1 -i 9 -a 1 -x {3.0 2.0 9 ------- null}
h -t 0.172 -s 3 -d 2 -p cbr -e 1000 -c 1 -i 9 -a 1 -x {3.0 2.0 -1 ------- null}
r -t 0.174 -s 3 -d 2 -p cbr -e 1000 -c 1 -i 7 -a 1 -x {3.0 2.0 7 ------- null}
+ -t 0.18 -s 3 -d 2 -p cbr -e 1000 -c 1 -i 10 -a 1 -x {3.0 2.0 10 ------- null}
- -t 0.18 -s 3 -d 2 -p cbr -e 1000 -c 1 -i 10 -a 1 -x {3.0 2.0 10 ------- null}
h -t 0.18 -s 3 -d 2 -p cbr -e 1000 -c 1 -i 10 -a 1 -x {3.0 2.0 -1 ------- null}
r -t 0.182 -s 3 -d 2 -p cbr -e 1000 -c 1 -i 8 -a 1 -x {3.0 2.0 8 ------- null}
+ -t 0.188 -s 3 -d 2 -p cbr -e 1000 -c 1 -i 11 -a 1 -x {3.0 2.0 11 ------- null}
- -t 0.188 -s 3 -d 2 -p cbr -e 1000 -c 1 -i 11 -a 1 -x {3.0 2.0 11 ------- null}
h -t 0.188 -s 3 -d 2 -p cbr -e 1000 -c 1 -i 11 -a 1 -x {3.0 2.0 -1 ------- null}
r -t 0.19 -s 3 -d 2 -p cbr -e 1000 -c 1 -i 9 -a 1 -x {3.0 2.0 9 ------- null}
+ -t 0.196 -s 3 -d 2 -p cbr -e 1000 -c 1 -i 12 -a 1 -x {3.0 2.0 12 ------- null}
- -t 0.196 -s 3 -d 2 -p cbr -e 1000 -c 1 -i 12 -a 1 -x {3.0 2.0 12 ------- null}
h -t 0.196 -s 3 -d 2 -p cbr -e 1000 -c 1 -i 12 -a 1 -x {3.0 2.0 -1 ------- null}
r -t 0.198 -s 3 -d 2 -p cbr -e 1000 -c 1 -i 10 -a 1 -x {3.0 2.0 10 ------- null}
+ -t 0.204 -s 3 -d 2 -p cbr -e 1000 -c 1 -i 13 -a 1 -x {3.0 2.0 13 ------- null}
- -t 0.204 -s 3 -d 2 -p cbr -e 1000 -c 1 -i 13 -a 1 -x {3.0 2.0 13 ------- null}
h -t 0.204 -s 3 -d 2 -p cbr -e 1000 -c 1 -i 13 -a 1 -x {3.0 2.0 -1 ------- null}
r -t 0.206 -s 3 -d 2 -p cbr -e 1000 -c 1 -i 11 -a 1 -x {3.0 2.0 11 ------- null}
+ -t 0.212 -s 3 -d 2 -p cbr -e 1000 -c 1 -i 14 -a 1 -x {3.0 2.0 14 ------- null}
- -t 0.212 -s 3 -d 2 -p cbr -e 1000 -c 1 -i 14 -a 1 -x {3.0 2.0 14 ------- null}
h -t 0.212 -s 3 -d 2 -p cbr -e 1000 -c 1 -i 14 -a 1 -x {3.0 2.0 -1 ------- null}
r -t 0.214 -s 3 -d 2 -p cbr -e 1000 -c 1 -i 12 -a 1 -x {3.0 2.0 12 ------- null}
+ -t 0.22 -s 3 -d 2 -p cbr -e 1000 -c 1 -i 15 -a 1 -x {3.0 2.0 15 ------- null}
- -t 0.22 -s 3 -d 2 -p cbr -e 1000 -c 1 -i 15 -a 1 -x {3.0 2.0 15 ------- null}
h -t 0.22 -s 3 -d 2 -p cbr -e 1000 -c 1 -i 15 -a 1 -x {3.0 2.0 -1 ------- null}
r -t 0.222 -s 3 -d 2 -p cbr -e 1000 -c 1 -i 13 -a 1 -x {3.0 2.0 13 ------- null}
+ -t 0.228 -s 3 -d 2 -p cbr -e 1000 -c 1 -i 16 -a 1 -x {3.0 2.0 16 ------- null}
- -t 0.228 -s 3 -d 2 -p cbr -e 1000 -c 1 -i 16 -a 1 -x {3.0 2.0 16 ------- null}
h -t 0.228 -s 3 -d 2 -p cbr -e 1000 -c 1 -i 16 -a 1 -x {3.0 2.0 -1 ------- null}
r -t 0.23 -s 3 -d 2 -p cbr -e 1000 -c 1 -i 14 -a 1 -x {3.0 2.0 14 ------- null}
+ -t 0.236 -s 3 -d 2 -p cbr -e 1000 -c 1 -i 17 -a 1 -x {3.0 2.0 17 ------- null}
- -t 0.236 -s 3 -d 2 -p cbr -e 1000 -c 1 -i 17 -a 1 -x {3.0 2.0 17 ------- null}
h -t 0.236 -s 3 -d 2 -p cbr -e 1000 -c 1 -i 17 -a 1 -x {3.0 2.0 -1 ------- null}
r -t 0.238 -s 3 -d 2 -p cbr -e 1000 -c 1 -i 15 -a 1 -x {3.0 2.0 15 ------- null}
+ -t 0.244 -s 3 -d 2 -p cbr -e 1000 -c 1 -i 18 -a 1 -x {3.0 2.0 18 ------- null}
- -t 0.244 -s 3 -d 2 -p cbr -e 1000 -c 1 -i 18 -a 1 -x {3.0 2.0 18 ------- null}
h -t 0.244 -s 3 -d 2 -p cbr -e 1000 -c 1 -i 18 -a 1 -x {3.0 2.0 -1 ------- null}
r -t 0.246 -s 3 -d 2 -p cbr -e 1000 -c 1 -i 16 -a 1 -x {3.0 2.0 16 ------- null}
+ -t 0.252 -s 3 -d 2 -p cbr -e 1000 -c 1 -i 19 -a 1 -x {3.0 2.0 19 ------- null}
- -t 0.252 -s 3 -d 2 -p cbr -e 1000 -c 1 -i 19 -a 1 -x {3.0 2.0 19 ------- null}
h -t 0.252 -s 3 -d 2 -p cbr -e 1000 -c 1 -i 19 -a 1 -x {3.0 2.0 -1 ------- null}
r -t 0.254 -s 3 -d 2 -p cbr -e 1000 -c 1 -i 17 -a 1 -x {3.0 2.0 17 ------- null}
+ -t 0.26 -s 3 -d 2 -p cbr -e 1000 -c 1 -i 20 -a 1 -x {3.0 2.0 20 ------- null}
- -t 0.26 -s 3 -d 2 -p cbr -e 1000 -c 1 -i 20 -a 1 -x {3.0 2.0 20 ------- null}
h -t 0.26 -s 3 -d 2 -p cbr -e 1000 -c 1 -i 20 -a 1 -x {3.0 2.0 -1 ------- null}
r -t 0.262 -s 3 -d 2 -p cbr -e 1000 -c 1 -i 18 -a 1 -x {3.0 2.0 18 ------- null}
+ -t 0.268 -s 3 -d 2 -p cbr -e 1000 -c 1 -i 21 -a 1 -x {3.0 2.0 21 ------- null}
- -t 0.268 -s 3 -d 2 -p cbr -e 1000 -c 1 -i 21 -a 1 -x {3.0 2.0 21 ------- null}
h -t 0.268 -s 3 -d 2 -p cbr -e 1000 -c 1 -i 21 -a 1 -x {3.0 2.0 -1 ------- null}
r -t 0.27 -s 3 -d 2 -p cbr -e 1000 -c 1 -i 19 -a 1 -x {3.0 2.0 19 ------- null}
+ -t 0.276 -s 3 -d 2 -p cbr -e 1000 -c 1 -i 22 -a 1 -x {3.0 2.0 22 ------- null}
- -t 0.276 -s 3 -d 2 -p cbr -e 1000 -c 1 -i 22 -a 1 -x {3.0 2.0 22 ------- null}
h -t 0.276 -s 3 -d 2 -p cbr -e 1000 -c 1 -i 22 -a 1 -x {3.0 2.0 -1 ------- null}
r -t 0.278 -s 3 -d 2 -p cbr -e 1000 -c 1 -i 20 -a 1 -x {3.0 2.0 20 ------- null}
+ -t 0.284 -s 3 -d 2 -p cbr -e 1000 -c 1 -i 23 -a 1 -x {3.0 2.0 23 ------- null}
- -t 0.284 -s 3 -d 2 -p cbr -e 1000 -c 1 -i 23 -a 1 -x {3.0 2.0 23 ------- null}
h -t 0.284 -s 3 -d 2 -p cbr -e 1000 -c 1 -i 23 -a 1 -x {3.0 2.0 -1 ------- null}
r -t 0.286 -s 3 -d 2 -p cbr -e 1000 -c 1 -i 21 -a 1 -x {3.0 2.0 21 ------- null}
+ -t 0.292 -s 3 -d 2 -p cbr -e 1000 -c 1 -i 24 -a 1 -x {3.0 2.0 24 ------- null}
- -t 0.292 -s 3 -d 2 -p cbr -e 1000 -c 1 -i 24 -a 1 -x {3.0 2.0 24 ------- null}
h -t 0.292 -s 3 -d 2 -p cbr -e 1000 -c 1 -i 24 -a 1 -x {3.0 2.0 -1 ------- null}
r -t 0.294 -s 3 -d 2 -p cbr -e 1000 -c 1 -i 22 -a 1 -x {3.0 2.0 22 ------- null}
+ -t 0.3 -s 3 -d 2 -p cbr -e 1000 -c 1 -i 25 -a 1 -x {3.0 2.0 25 ------- null}
- -t 0.3 -s 3 -d 2 -p cbr -e 1000 -c 1 -i 25 -a 1 -x {3.0 2.0 25 ------- null}
h -t 0.3 -s 3 -d 2 -p cbr -e 1000 -c 1 -i 25 -a 1 -x {3.0 2.0 -1 ------- null}
r -t 0.302 -s 3 -d 2 -p cbr -e 1000 -c 1 -i 23 -a 1 -x {3.0 2.0 23 ------- null}
+ -t 0.308 -s 3 -d 2 -p cbr -e 1000 -c 1 -i 26 -a 1 -x {3.0 2.0 26 ------- null}
- -t 0.308 -s 3 -d 2 -p cbr -e 1000 -c 1 -i 26 -a 1 -x {3.0 2.0 26 ------- null}
h -t 0.308 -s 3 -d 2 -p cbr -e 1000 -c 1 -i 26 -a 1 -x {3.0 2.0 -1 ------- null}
r -t 0.31 -s 3 -d 2 -p cbr -e 1000 -c 1 -i 24 -a 1 -x {3.0 2.0 24 ------- null}
+ -t 0.316 -s 3 -d 2 -p cbr -e 1000 -c 1 -i 27 -a 1 -x {3.0 2.0 27 ------- null}
- -t 0.316 -s 3 -d 2 -p cbr -e 1000 -c 1 -i 27 -a 1 -x {3.0 2.0 27 ------- null}
h -t 0.316 -s 3 -d 2 -p cbr -e 1000 -c 1 -i 27 -a 1 -x {3.0 2.0 -1 ------- null}
r -t 0.318 -s 3 -d 2 -p cbr -e 1000 -c 1 -i 25 -a 1 -x {3.0 2.0 25 ------- null}
+ -t 0.324 -s 3 -d 2 -p cbr -e 1000 -c 1 -i 28 -a 1 -x {3.0 2.0 28 ------- null}
- -t 0.324 -s 3 -d 2 -p cbr -e 1000 -c 1 -i 28 -a 1 -x {3.0 2.0 28 ------- null}
h -t 0.324 -s 3 -d 2 -p cbr -e 1000 -c 1 -i 28 -a 1 -x {3.0 2.0 -1 ------- null}
r -t 0.326 -s 3 -d 2 -p cbr -e 1000 -c 1 -i 26 -a 1 -x {3.0 2.0 26 ------- null}
+ -t 0.332 -s 3 -d 2 -p cbr -e 1000 -c 1 -i 29 -a 1 -x {3.0 2.0 29 ------- null}
- -t 0.332 -s 3 -d 2 -p cbr -e 1000 -c 1 -i 29 -a 1 -x {3.0 2.0 29 ------- null}
h -t 0.332 -s 3 -d 2 -p cbr -e 1000 -c 1 -i 29 -a 1 -x {3.0 2.0 -1 ------- null}
r -t 0.334 -s 3 -d 2 -p cbr -e 1000 -c 1 -i 27 -a 1 -x {3.0 2.0 27 ------- null}
+ -t 0.34 -s 3 -d 2 -p cbr -e 1000 -c 1 -i 30 -a 1 -x {3.0 2.0 30 ------- null}
- -t 0.34 -s 3 -d 2 -p cbr -e 1000 -c 1 -i 30 -a 1 -x {3.0 2.0 30 ------- null}
h -t 0.34 -s 3 -d 2 -p cbr -e 1000 -c 1 -i 30 -a 1 -x {3.0 2.0 -1 ------- null}
r -t 0.342 -s 3 -d 2 -p cbr -e 1000 -c 1 -i 28 -a 1 -x {3.0 2.0 28 ------- null}
+ -t 0.348 -s 3 -d 2 -p cbr -e 1000 -c 1 -i 31 -a 1 -x {3.0 2.0 31 ------- null}
- -t 0.348 -s 3 -d 2 -p cbr -e 1000 -c 1 -i 31 -a 1 -x {3.0 2.0 31 ------- null}
h -t 0.348 -s 3 -d 2 -p cbr -e 1000 -c 1 -i 31 -a 1 -x {3.0 2.0 -1 ------- null}
r -t 0.35 -s 3 -d 2 -p cbr -e 1000 -c 1 -i 29 -a 1 -x {3.0 2.0 29 ------- null}
+ -t 0.356 -s 3 -d 2 -p cbr -e 1000 -c 1 -i 32 -a 1 -x {3.0 2.0 32 ------- null}
- -t 0.356 -s 3 -d 2 -p cbr -e 1000 -c 1 -i 32 -a 1 -x {3.0 2.0 32 ------- null}
h -t 0.356 -s 3 -d 2 -p cbr -e 1000 -c 1 -i 32 -a 1 -x {3.0 2.0 -1 ------- null}
r -t 0.358 -s 3 -d 2 -p cbr -e 1000 -c 1 -i 30 -a 1 -x {3.0 2.0 30 ------- null}
+ -t 0.364 -s 3 -d 2 -p cbr -e 1000 -c 1 -i 33 -a 1 -x {3.0 2.0 33 ------- null}
- -t 0.364 -s 3 -d 2 -p cbr -e 1000 -c 1 -i 33 -a 1 -x {3.0 2.0 33 ------- null}
h -t 0.364 -s 3 -d 2 -p cbr -e 1000 -c 1 -i 33 -a 1 -x {3.0 2.0 -1 ------- null}
r -t 0.366 -s 3 -d 2 -p cbr -e 1000 -c 1 -i 31 -a 1 -x {3.0 2.0 31 ------- null}
+ -t 0.372 -s 3 -d 2 -p cbr -e 1000 -c 1 -i 34 -a 1 -x {3.0 2.0 34 ------- null}
- -t 0.372 -s 3 -d 2 -p cbr -e 1000 -c 1 -i 34 -a 1 -x {3.0 2.0 34 ------- null}
h -t 0.372 -s 3 -d 2 -p cbr -e 1000 -c 1 -i 34 -a 1 -x {3.0 2.0 -1 ------- null}
r -t 0.374 -s 3 -d 2 -p cbr -e 1000 -c 1 -i 32 -a 1 -x {3.0 2.0 32 ------- null}
+ -t 0.38 -s 3 -d 2 -p cbr -e 1000 -c 1 -i 35 -a 1 -x {3.0 2.0 35 ------- null}
- -t 0.38 -s 3 -d 2 -p cbr -e 1000 -c 1 -i 35 -a 1 -x {3.0 2.0 35 ------- null}
h -t 0.38 -s 3 -d 2 -p cbr -e 1000 -c 1 -i 35 -a 1 -x {3.0 2.0 -1 ------- null}
r -t 0.382 -s 3 -d 2 -p cbr -e 1000 -c 1 -i 33 -a 1 -x {3.0 2.0 33 ------- null}
+ -t 0.388 -s 3 -d 2 -p cbr -e 1000 -c 1 -i 36 -a 1 -x {3.0 2.0 36 ------- null}
- -t 0.388 -s 3 -d 2 -p cbr -e 1000 -c 1 -i 36 -a 1 -x {3.0 2.0 36 ------- null}
h -t 0.388 -s 3 -d 2 -p cbr -e 1000 -c 1 -i 36 -a 1 -x {3.0 2.0 -1 ------- null}
r -t 0.39 -s 3 -d 2 -p cbr -e 1000 -c 1 -i 34 -a 1 -x {3.0 2.0 34 ------- null}
+ -t 0.396 -s 3 -d 2 -p cbr -e 1000 -c 1 -i 37 -a 1 -x {3.0 2.0 37 ------- null}
- -t 0.396 -s 3 -d 2 -p cbr -e 1000 -c 1 -i 37 -a 1 -x {3.0 2.0 37 ------- null}
h -t 0.396 -s 3 -d 2 -p cbr -e 1000 -c 1 -i 37 -a 1 -x {3.0 2.0 -1 ------- null}
r -t 0.398 -s 3 -d 2 -p cbr -e 1000 -c 1 -i 35 -a 1 -x {3.0 2.0 35 ------- null}
+ -t 0.404 -s 3 -d 2 -p cbr -e 1000 -c 1 -i 38 -a 1 -x {3.0 2.0 38 ------- null}
- -t 0.404 -s 3 -d 2 -p cbr -e 1000 -c 1 -i 38 -a 1 -x {3.0 2.0 38 ------- null}
h -t 0.404 -s 3 -d 2 -p cbr -e 1000 -c 1 -i 38 -a 1 -x {3.0 2.0 -1 ------- null}
r -t 0.406 -s 3 -d 2 -p cbr -e 1000 -c 1 -i 36 -a 1 -x {3.0 2.0 36 ------- null}
+ -t 0.412 -s 3 -d 2 -p cbr -e 1000 -c 1 -i 39 -a 1 -x {3.0 2.0 39 ------- null}
- -t 0.412 -s 3 -d 2 -p cbr -e 1000 -c 1 -i 39 -a 1 -x {3.0 2.0 39 ------- null}
h -t 0.412 -s 3 -d 2 -p cbr -e 1000 -c 1 -i 39 -a 1 -x {3.0 2.0 -1 ------- null}
r -t 0.414 -s 3 -d 2 -p cbr -e 1000 -c 1 -i 37 -a 1 -x {3.0 2.0 37 ------- null}
+ -t 0.42 -s 3 -d 2 -p cbr -e 1000 -c 1 -i 40 -a 1 -x {3.0 2.0 40 ------- null}
- -t 0.42 -s 3 -d 2 -p cbr -e 1000 -c 1 -i 40 -a 1 -x {3.0 2.0 40 ------- null}
h -t 0.42 -s 3 -d 2 -p cbr -e 1000 -c 1 -i 40 -a 1 -x {3.0 2.0 -1 ------- null}
r -t 0.422 -s 3 -d 2 -p cbr -e 1000 -c 1 -i 38 -a 1 -x {3.0 2.0 38 ------- null}
+ -t 0.428 -s 3 -d 2 -p cbr -e 1000 -c 1 -i 41 -a 1 -x {3.0 2.0 41 ------- null}
- -t 0.428 -s 3 -d 2 -p cbr -e 1000 -c 1 -i 41 -a 1 -x {3.0 2.0 41 ------- null}
h -t 0.428 -s 3 -d 2 -p cbr -e 1000 -c 1 -i 41 -a 1 -x {3.0 2.0 -1 ------- null}
r -t 0.43 -s 3 -d 2 -p cbr -e 1000 -c 1 -i 39 -a 1 -x {3.0 2.0 39 ------- null}
+ -t 0.436 -s 3 -d 2 -p cbr -e 1000 -c 1 -i 42 -a 1 -x {3.0 2.0 42 ------- null}
- -t 0.436 -s 3 -d 2 -p cbr -e 1000 -c 1 -i 42 -a 1 -x {3.0 2.0 42 ------- null}
h -t 0.436 -s 3 -d 2 -p cbr -e 1000 -c 1 -i 42 -a 1 -x {3.0 2.0 -1 ------- null}
r -t 0.438 -s 3 -d 2 -p cbr -e 1000 -c 1 -i 40 -a 1 -x {3.0 2.0 40 ------- null}
+ -t 0.444 -s 3 -d 2 -p cbr -e 1000 -c 1 -i 43 -a 1 -x {3.0 2.0 43 ------- null}
- -t 0.444 -s 3 -d 2 -p cbr -e 1000 -c 1 -i 43 -a 1 -x {3.0 2.0 43 ------- null}
h -t 0.444 -s 3 -d 2 -p cbr -e 1000 -c 1 -i 43 -a 1 -x {3.0 2.0 -1 ------- null}
r -t 0.446 -s 3 -d 2 -p cbr -e 1000 -c 1 -i 41 -a 1 -x {3.0 2.0 41 ------- null}
+ -t 0.452 -s 3 -d 2 -p cbr -e 1000 -c 1 -i 44 -a 1 -x {3.0 2.0 44 ------- null}
- -t 0.452 -s 3 -d 2 -p cbr -e 1000 -c 1 -i 44 -a 1 -x {3.0 2.0 44 ------- null}
h -t 0.452 -s 3 -d 2 -p cbr -e 1000 -c 1 -i 44 -a 1 -x {3.0 2.0 -1 ------- null}
r -t 0.454 -s 3 -d 2 -p cbr -e 1000 -c 1 -i 42 -a 1 -x {3.0 2.0 42 ------- null}
+ -t 0.46 -s 3 -d 2 -p cbr -e 1000 -c 1 -i 45 -a 1 -x {3.0 2.0 45 ------- null}
- -t 0.46 -s 3 -d 2 -p cbr -e 1000 -c 1 -i 45 -a 1 -x {3.0 2.0 45 ------- null}
h -t 0.46 -s 3 -d 2 -p cbr -e 1000 -c 1 -i 45 -a 1 -x {3.0 2.0 -1 ------- null}
r -t 0.462 -s 3 -d 2 -p cbr -e 1000 -c 1 -i 43 -a 1 -x {3.0 2.0 43 ------- null}
+ -t 0.468 -s 3 -d 2 -p cbr -e 1000 -c 1 -i 46 -a 1 -x {3.0 2.0 46 ------- null}
- -t 0.468 -s 3 -d 2 -p cbr -e 1000 -c 1 -i 46 -a 1 -x {3.0 2.0 46 ------- null}
h -t 0.468 -s 3 -d 2 -p cbr -e 1000 -c 1 -i 46 -a 1 -x {3.0 2.0 -1 ------- null}
r -t 0.47 -s 3 -d 2 -p cbr -e 1000 -c 1 -i 44 -a 1 -x {3.0 2.0 44 ------- null}
+ -t 0.476 -s 3 -d 2 -p cbr -e 1000 -c 1 -i 47 -a 1 -x {3.0 2.0 47 ------- null}
- -t 0.476 -s 3 -d 2 -p cbr -e 1000 -c 1 -i 47 -a 1 -x {3.0 2.0 47 ------- null}
h -t 0.476 -s 3 -d 2 -p cbr -e 1000 -c 1 -i 47 -a 1 -x {3.0 2.0 -1 ------- null}
r -t 0.478 -s 3 -d 2 -p cbr -e 1000 -c 1 -i 45 -a 1 -x {3.0 2.0 45 ------- null}
+ -t 0.484 -s 3 -d 2 -p cbr -e 1000 -c 1 -i 48 -a 1 -x {3.0 2.0 48 ------- null}
- -t 0.484 -s 3 -d 2 -p cbr -e 1000 -c 1 -i 48 -a 1 -x {3.0 2.0 48 ------- null}
h -t 0.484 -s 3 -d 2 -p cbr -e 1000 -c 1 -i 48 -a 1 -x {3.0 2.0 -1 ------- null}
r -t 0.486 -s 3 -d 2 -p cbr -e 1000 -c 1 -i 46 -a 1 -x {3.0 2.0 46 ------- null}
+ -t 0.492 -s 3 -d 2 -p cbr -e 1000 -c 1 -i 49 -a 1 -x {3.0 2.0 49 ------- null}
- -t 0.492 -s 3 -d 2 -p cbr -e 1000 -c 1 -i 49 -a 1 -x {3.0 2.0 49 ------- null}
h -t 0.492 -s 3 -d 2 -p cbr -e 1000 -c 1 -i 49 -a 1 -x {3.0 2.0 -1 ------- null}
r -t 0.494 -s 3 -d 2 -p cbr -e 1000 -c 1 -i 47 -a 1 -x {3.0 2.0 47 ------- null}
+ -t 0.5 -s 1 -d 2 -p tcp -e 40 -c 3 -i 50 -a 3 -x {1.0 4.0 0 ------- null}
- -t 0.5 -s 1 -d 2 -p tcp -e 40 -c 3 -i 50 -a 3 -x {1.0 4.0 0 ------- null}
h -t 0.5 -s 1 -d 2 -p tcp -e 40 -c 3 -i 50 -a 3 -x {1.0 4.0 -1 ------- null}
+ -t 0.5 -s 3 -d 2 -p cbr -e 1000 -c 1 -i 51 -a 1 -x {3.0 2.0 50 ------- null}
- -t 0.5 -s 3 -d 2 -p cbr -e 1000 -c 1 -i 51 -a 1 -x {3.0 2.0 50 ------- null}
h -t 0.5 -s 3 -d 2 -p cbr -e 1000 -c 1 -i 51 -a 1 -x {3.0 2.0 -1 ------- null}
r -t 0.502 -s 3 -d 2 -p cbr -e 1000 -c 1 -i 48 -a 1 -x {3.0 2.0 48 ------- null}
+ -t 0.508 -s 3 -d 2 -p cbr -e 1000 -c 1 -i 52 -a 1 -x {3.0 2.0 51 ------- null}
- -t 0.508 -s 3 -d 2 -p cbr -e 1000 -c 1 -i 52 -a 1 -x {3.0 2.0 51 ------- null}
h -t 0.508 -s 3 -d 2 -p cbr -e 1000 -c 1 -i 52 -a 1 -x {3.0 2.0 -1 ------- null}
r -t 0.51 -s 3 -d 2 -p cbr -e 1000 -c 1 -i 49 -a 1 -x {3.0 2.0 49 ------- null}
+ -t 0.516 -s 3 -d 2 -p cbr -e 1000 -c 1 -i 53 -a 1 -x {3.0 2.0 52 ------- null}
- -t 0.516 -s 3 -d 2 -p cbr -e 1000 -c 1 -i 53 -a 1 -x {3.0 2.0 52 ------- null}
h -t 0.516 -s 3 -d 2 -p cbr -e 1000 -c 1 -i 53 -a 1 -x {3.0 2.0 -1 ------- null}
r -t 0.518 -s 3 -d 2 -p cbr -e 1000 -c 1 -i 51 -a 1 -x {3.0 2.0 50 ------- null}
r -t 0.52016 -s 1 -d 2 -p tcp -e 40 -c 3 -i 50 -a 3 -x {1.0 4.0 0 ------- null}
+ -t 0.52016 -s 2 -d 3 -p tcp -e 40 -c 3 -i 50 -a 3 -x {1.0 4.0 0 ------- null}
- -t 0.52016 -s 2 -d 3 -p tcp -e 40 -c 3 -i 50 -a 3 -x {1.0 4.0 0 ------- null}
h -t 0.52016 -s 2 -d 3 -p tcp -e 40 -c 3 -i 50 -a 3 -x {1.0 4.0 -1 ------- null}
+ -t 0.524 -s 3 -d 2 -p cbr -e 1000 -c 1 -i 54 -a 1 -x {3.0 2.0 53 ------- null}
- -t 0.524 -s 3 -d 2 -p cbr -e 1000 -c 1 -i 54 -a 1 -x {3.0 2.0 53 ------- null}
h -t 0.524 -s 3 -d 2 -p cbr -e 1000 -c 1 -i 54 -a 1 -x {3.0 2.0 -1 ------- null}
r -t 0.526 -s 3 -d 2 -p cbr -e 1000 -c 1 -i 52 -a 1 -x {3.0 2.0 51 ------- null}
r -t 0.53048 -s 2 -d 3 -p tcp -e 40 -c 3 -i 50 -a 3 -x {1.0 4.0 0 ------- null}
+ -t 0.53048 -s 3 -d 4 -p tcp -e 40 -c 3 -i 50 -a 3 -x {1.0 4.0 0 ------- null}
- -t 0.53048 -s 3 -d 4 -p tcp -e 40 -c 3 -i 50 -a 3 -x {1.0 4.0 0 ------- null}
h -t 0.53048 -s 3 -d 4 -p tcp -e 40 -c 3 -i 50 -a 3 -x {1.0 4.0 -1 ------- null}
+ -t 0.532 -s 3 -d 2 -p cbr -e 1000 -c 1 -i 55 -a 1 -x {3.0 2.0 54 ------- null}
- -t 0.532 -s 3 -d 2 -p cbr -e 1000 -c 1 -i 55 -a 1 -x {3.0 2.0 54 ------- null}
h -t 0.532 -s 3 -d 2 -p cbr -e 1000 -c 1 -i 55 -a 1 -x {3.0 2.0 -1 ------- null}
r -t 0.534 -s 3 -d 2 -p cbr -e 1000 -c 1 -i 53 -a 1 -x {3.0 2.0 52 ------- null}
+ -t 0.54 -s 3 -d 2 -p cbr -e 1000 -c 1 -i 56 -a 1 -x {3.0 2.0 55 ------- null}
- -t 0.54 -s 3 -d 2 -p cbr -e 1000 -c 1 -i 56 -a 1 -x {3.0 2.0 55 ------- null}
h -t 0.54 -s 3 -d 2 -p cbr -e 1000 -c 1 -i 56 -a 1 -x {3.0 2.0 -1 ------- null}
r -t 0.542 -s 3 -d 2 -p cbr -e 1000 -c 1 -i 54 -a 1 -x {3.0 2.0 53 ------- null}
+ -t 0.548 -s 3 -d 2 -p cbr -e 1000 -c 1 -i 57 -a 1 -x {3.0 2.0 56 ------- null}
- -t 0.548 -s 3 -d 2 -p cbr -e 1000 -c 1 -i 57 -a 1 -x {3.0 2.0 56 ------- null}
h -t 0.548 -s 3 -d 2 -p cbr -e 1000 -c 1 -i 57 -a 1 -x {3.0 2.0 -1 ------- null}
r -t 0.55 -s 3 -d 2 -p cbr -e 1000 -c 1 -i 55 -a 1 -x {3.0 2.0 54 ------- null}
r -t 0.55064 -s 3 -d 4 -p tcp -e 40 -c 3 -i 50 -a 3 -x {1.0 4.0 0 ------- null}
+ -t 0.55064 -s 4 -d 5 -p ack -e 40 -c 3 -i 58 -a 3 -x {4.0 1.0 0 ------- null}
- -t 0.55064 -s 4 -d 5 -p ack -e 40 -c 3 -i 58 -a 3 -x {4.0 1.0 0 ------- null}
h -t 0.55064 -s 4 -d 5 -p ack -e 40 -c 3 -i 58 -a 3 -x {4.0 1.0 -1 ------- null}
+ -t 0.556 -s 3 -d 2 -p cbr -e 1000 -c 1 -i 59 -a 1 -x {3.0 2.0 57 ------- null}
- -t 0.556 -s 3 -d 2 -p cbr -e 1000 -c 1 -i 59 -a 1 -x {3.0 2.0 57 ------- null}
h -t 0.556 -s 3 -d 2 -p cbr -e 1000 -c 1 -i 59 -a 1 -x {3.0 2.0 -1 ------- null}
r -t 0.558 -s 3 -d 2 -p cbr -e 1000 -c 1 -i 56 -a 1 -x {3.0 2.0 55 ------- null}
r -t 0.56096 -s 4 -d 5 -p ack -e 40 -c 3 -i 58 -a 3 -x {4.0 1.0 0 ------- null}
+ -t 0.56096 -s 5 -d 0 -p ack -e 40 -c 3 -i 58 -a 3 -x {4.0 1.0 0 ------- null}
- -t 0.56096 -s 5 -d 0 -p ack -e 40 -c 3 -i 58 -a 3 -x {4.0 1.0 0 ------- null}
h -t 0.56096 -s 5 -d 0 -p ack -e 40 -c 3 -i 58 -a 3 -x {4.0 1.0 -1 ------- null}
+ -t 0.564 -s 3 -d 2 -p cbr -e 1000 -c 1 -i 60 -a 1 -x {3.0 2.0 58 ------- null}
- -t 0.564 -s 3 -d 2 -p cbr -e 1000 -c 1 -i 60 -a 1 -x {3.0 2.0 58 ------- null}
h -t 0.564 -s 3 -d 2 -p cbr -e 1000 -c 1 -i 60 -a 1 -x {3.0 2.0 -1 ------- null}
r -t 0.566 -s 3 -d 2 -p cbr -e 1000 -c 1 -i 57 -a 1 -x {3.0 2.0 56 ------- null}
+ -t 0.572 -s 3 -d 2 -p cbr -e 1000 -c 1 -i 61 -a 1 -x {3.0 2.0 59 ------- null}
- -t 0.572 -s 3 -d 2 -p cbr -e 1000 -c 1 -i 61 -a 1 -x {3.0 2.0 59 ------- null}
h -t 0.572 -s 3 -d 2 -p cbr -e 1000 -c 1 -i 61 -a 1 -x {3.0 2.0 -1 ------- null}
r -t 0.574 -s 3 -d 2 -p cbr -e 1000 -c 1 -i 59 -a 1 -x {3.0 2.0 57 ------- null}
+ -t 0.58 -s 3 -d 2 -p cbr -e 1000 -c 1 -i 62 -a 1 -x {3.0 2.0 60 ------- null}
- -t 0.58 -s 3 -d 2 -p cbr -e 1000 -c 1 -i 62 -a 1 -x {3.0 2.0 60 ------- null}
h -t 0.58 -s 3 -d 2 -p cbr -e 1000 -c 1 -i 62 -a 1 -x {3.0 2.0 -1 ------- null}
r -t 0.58112 -s 5 -d 0 -p ack -e 40 -c 3 -i 58 -a 3 -x {4.0 1.0 0 ------- null}
+ -t 0.58112 -s 0 -d 1 -p ack -e 40 -c 3 -i 58 -a 3 -x {4.0 1.0 0 ------- null}
- -t 0.58112 -s 0 -d 1 -p ack -e 40 -c 3 -i 58 -a 3 -x {4.0 1.0 0 ------- null}
h -t 0.58112 -s 0 -d 1 -p ack -e 40 -c 3 -i 58 -a 3 -x {4.0 1.0 -1 ------- null}
r -t 0.582 -s 3 -d 2 -p cbr -e 1000 -c 1 -i 60 -a 1 -x {3.0 2.0 58 ------- null}
+ -t 0.588 -s 3 -d 2 -p cbr -e 1000 -c 1 -i 63 -a 1 -x {3.0 2.0 61 ------- null}
- -t 0.588 -s 3 -d 2 -p cbr -e 1000 -c 1 -i 63 -a 1 -x {3.0 2.0 61 ------- null}
h -t 0.588 -s 3 -d 2 -p cbr -e 1000 -c 1 -i 63 -a 1 -x {3.0 2.0 -1 ------- null}
r -t 0.59 -s 3 -d 2 -p cbr -e 1000 -c 1 -i 61 -a 1 -x {3.0 2.0 59 ------- null}
r -t 0.59144 -s 0 -d 1 -p ack -e 40 -c 3 -i 58 -a 3 -x {4.0 1.0 0 ------- null}
+ -t 0.59144 -s 1 -d 2 -p tcp -e 1040 -c 3 -i 64 -a 3 -x {1.0 4.0 1 ------- null}
- -t 0.59144 -s 1 -d 2 -p tcp -e 1040 -c 3 -i 64 -a 3 -x {1.0 4.0 1 ------- null}
h -t 0.59144 -s 1 -d 2 -p tcp -e 1040 -c 3 -i 64 -a 3 -x {1.0 4.0 -1 ------- null}
+ -t 0.59144 -s 1 -d 2 -p tcp -e 1040 -c 3 -i 65 -a 3 -x {1.0 4.0 2 ------- null}
- -t 0.5956 -s 1 -d 2 -p tcp -e 1040 -c 3 -i 65 -a 3 -x {1.0 4.0 2 ------- null}
h -t 0.5956 -s 1 -d 2 -p tcp -e 1040 -c 3 -i 65 -a 3 -x {1.0 4.0 -1 ------- null}
+ -t 0.596 -s 3 -d 2 -p cbr -e 1000 -c 1 -i 66 -a 1 -x {3.0 2.0 62 ------- null}
- -t 0.596 -s 3 -d 2 -p cbr -e 1000 -c 1 -i 66 -a 1 -x {3.0 2.0 62 ------- null}
h -t 0.596 -s 3 -d 2 -p cbr -e 1000 -c 1 -i 66 -a 1 -x {3.0 2.0 -1 ------- null}
r -t 0.598 -s 3 -d 2 -p cbr -e 1000 -c 1 -i 62 -a 1 -x {3.0 2.0 60 ------- null}
+ -t 0.604 -s 3 -d 2 -p cbr -e 1000 -c 1 -i 67 -a 1 -x {3.0 2.0 63 ------- null}
- -t 0.604 -s 3 -d 2 -p cbr -e 1000 -c 1 -i 67 -a 1 -x {3.0 2.0 63 ------- null}
h -t 0.604 -s 3 -d 2 -p cbr -e 1000 -c 1 -i 67 -a 1 -x {3.0 2.0 -1 ------- null}
r -t 0.606 -s 3 -d 2 -p cbr -e 1000 -c 1 -i 63 -a 1 -x {3.0 2.0 61 ------- null}
+ -t 0.612 -s 3 -d 2 -p cbr -e 1000 -c 1 -i 68 -a 1 -x {3.0 2.0 64 ------- null}
- -t 0.612 -s 3 -d 2 -p cbr -e 1000 -c 1 -i 68 -a 1 -x {3.0 2.0 64 ------- null}
h -t 0.612 -s 3 -d 2 -p cbr -e 1000 -c 1 -i 68 -a 1 -x {3.0 2.0 -1 ------- null}
r -t 0.614 -s 3 -d 2 -p cbr -e 1000 -c 1 -i 66 -a 1 -x {3.0 2.0 62 ------- null}
r -t 0.6156 -s 1 -d 2 -p tcp -e 1040 -c 3 -i 64 -a 3 -x {1.0 4.0 1 ------- null}
+ -t 0.6156 -s 2 -d 3 -p tcp -e 1040 -c 3 -i 64 -a 3 -x {1.0 4.0 1 ------- null}
- -t 0.6156 -s 2 -d 3 -p tcp -e 1040 -c 3 -i 64 -a 3 -x {1.0 4.0 1 ------- null}
h -t 0.6156 -s 2 -d 3 -p tcp -e 1040 -c 3 -i 64 -a 3 -x {1.0 4.0 -1 ------- null}
r -t 0.61976 -s 1 -d 2 -p tcp -e 1040 -c 3 -i 65 -a 3 -x {1.0 4.0 2 ------- null}
+ -t 0.61976 -s 2 -d 3 -p tcp -e 1040 -c 3 -i 65 -a 3 -x {1.0 4.0 2 ------- null}
+ -t 0.62 -s 3 -d 2 -p cbr -e 1000 -c 1 -i 69 -a 1 -x {3.0 2.0 65 ------- null}
- -t 0.62 -s 3 -d 2 -p cbr -e 1000 -c 1 -i 69 -a 1 -x {3.0 2.0 65 ------- null}
h -t 0.62 -s 3 -d 2 -p cbr -e 1000 -c 1 -i 69 -a 1 -x {3.0 2.0 -1 ------- null}
r -t 0.622 -s 3 -d 2 -p cbr -e 1000 -c 1 -i 67 -a 1 -x {3.0 2.0 63 ------- null}
- -t 0.62392 -s 2 -d 3 -p tcp -e 1040 -c 3 -i 65 -a 3 -x {1.0 4.0 2 ------- null}
h -t 0.62392 -s 2 -d 3 -p tcp -e 1040 -c 3 -i 65 -a 3 -x {1.0 4.0 -1 ------- null}
+ -t 0.628 -s 3 -d 2 -p cbr -e 1000 -c 1 -i 70 -a 1 -x {3.0 2.0 66 ------- null}
- -t 0.628 -s 3 -d 2 -p cbr -e 1000 -c 1 -i 70 -a 1 -x {3.0 2.0 66 ------- null}
h -t 0.628 -s 3 -d 2 -p cbr -e 1000 -c 1 -i 70 -a 1 -x {3.0 2.0 -1 ------- null}
r -t 0.63 -s 3 -d 2 -p cbr -e 1000 -c 1 -i 68 -a 1 -x {3.0 2.0 64 ------- null}
r -t 0.63392 -s 2 -d 3 -p tcp -e 1040 -c 3 -i 64 -a 3 -x {1.0 4.0 1 ------- null}
+ -t 0.63392 -s 3 -d 4 -p tcp -e 1040 -c 3 -i 64 -a 3 -x {1.0 4.0 1 ------- null}
- -t 0.63392 -s 3 -d 4 -p tcp -e 1040 -c 3 -i 64 -a 3 -x {1.0 4.0 1 ------- null}
h -t 0.63392 -s 3 -d 4 -p tcp -e 1040 -c 3 -i 64 -a 3 -x {1.0 4.0 -1 ------- null}
+ -t 0.636 -s 3 -d 2 -p cbr -e 1000 -c 1 -i 71 -a 1 -x {3.0 2.0 67 ------- null}
- -t 0.636 -s 3 -d 2 -p cbr -e 1000 -c 1 -i 71 -a 1 -x {3.0 2.0 67 ------- null}
h -t 0.636 -s 3 -d 2 -p cbr -e 1000 -c 1 -i 71 -a 1 -x {3.0 2.0 -1 ------- null}
r -t 0.638 -s 3 -d 2 -p cbr -e 1000 -c 1 -i 69 -a 1 -x {3.0 2.0 65 ------- null}
r -t 0.64224 -s 2 -d 3 -p tcp -e 1040 -c 3 -i 65 -a 3 -x {1.0 4.0 2 ------- null}
+ -t 0.64224 -s 3 -d 4 -p tcp -e 1040 -c 3 -i 65 -a 3 -x {1.0 4.0 2 ------- null}
- -t 0.64224 -s 3 -d 4 -p tcp -e 1040 -c 3 -i 65 -a 3 -x {1.0 4.0 2 ------- null}
h -t 0.64224 -s 3 -d 4 -p tcp -e 1040 -c 3 -i 65 -a 3 -x {1.0 4.0 -1 ------- null}
+ -t 0.644 -s 3 -d 2 -p cbr -e 1000 -c 1 -i 72 -a 1 -x {3.0 2.0 68 ------- null}
- -t 0.644 -s 3 -d 2 -p cbr -e 1000 -c 1 -i 72 -a 1 -x {3.0 2.0 68 ------- null}
h -t 0.644 -s 3 -d 2 -p cbr -e 1000 -c 1 -i 72 -a 1 -x {3.0 2.0 -1 ------- null}
r -t 0.646 -s 3 -d 2 -p cbr -e 1000 -c 1 -i 70 -a 1 -x {3.0 2.0 66 ------- null}
+ -t 0.652 -s 3 -d 2 -p cbr -e 1000 -c 1 -i 73 -a 1 -x {3.0 2.0 69 ------- null}
- -t 0.652 -s 3 -d 2 -p cbr -e 1000 -c 1 -i 73 -a 1 -x {3.0 2.0 69 ------- null}
h -t 0.652 -s 3 -d 2 -p cbr -e 1000 -c 1 -i 73 -a 1 -x {3.0 2.0 -1 ------- null}
r -t 0.654 -s 3 -d 2 -p cbr -e 1000 -c 1 -i 71 -a 1 -x {3.0 2.0 67 ------- null}
r -t 0.65808 -s 3 -d 4 -p tcp -e 1040 -c 3 -i 64 -a 3 -x {1.0 4.0 1 ------- null}
+ -t 0.65808 -s 4 -d 5 -p ack -e 40 -c 3 -i 74 -a 3 -x {4.0 1.0 1 ------- null}
- -t 0.65808 -s 4 -d 5 -p ack -e 40 -c 3 -i 74 -a 3 -x {4.0 1.0 1 ------- null}
h -t 0.65808 -s 4 -d 5 -p ack -e 40 -c 3 -i 74 -a 3 -x {4.0 1.0 -1 ------- null}
+ -t 0.66 -s 3 -d 2 -p cbr -e 1000 -c 1 -i 75 -a 1 -x {3.0 2.0 70 ------- null}
- -t 0.66 -s 3 -d 2 -p cbr -e 1000 -c 1 -i 75 -a 1 -x {3.0 2.0 70 ------- null}
h -t 0.66 -s 3 -d 2 -p cbr -e 1000 -c 1 -i 75 -a 1 -x {3.0 2.0 -1 ------- null}
r -t 0.662 -s 3 -d 2 -p cbr -e 1000 -c 1 -i 72 -a 1 -x {3.0 2.0 68 ------- null}
r -t 0.6664 -s 3 -d 4 -p tcp -e 1040 -c 3 -i 65 -a 3 -x {1.0 4.0 2 ------- null}
+ -t 0.6664 -s 4 -d 5 -p ack -e 40 -c 3 -i 76 -a 3 -x {4.0 1.0 2 ------- null}
- -t 0.6664 -s 4 -d 5 -p ack -e 40 -c 3 -i 76 -a 3 -x {4.0 1.0 2 ------- null}
h -t 0.6664 -s 4 -d 5 -p ack -e 40 -c 3 -i 76 -a 3 -x {4.0 1.0 -1 ------- null}
+ -t 0.668 -s 3 -d 2 -p cbr -e 1000 -c 1 -i 77 -a 1 -x {3.0 2.0 71 ------- null}
- -t 0.668 -s 3 -d 2 -p cbr -e 1000 -c 1 -i 77 -a 1 -x {3.0 2.0 71 ------- null}
h -t 0.668 -s 3 -d 2 -p cbr -e 1000 -c 1 -i 77 -a 1 -x {3.0 2.0 -1 ------- null}
r -t 0.6684 -s 4 -d 5 -p ack -e 40 -c 3 -i 74 -a 3 -x {4.0 1.0 1 ------- null}
+ -t 0.6684 -s 5 -d 0 -p ack -e 40 -c 3 -i 74 -a 3 -x {4.0 1.0 1 ------- null}
- -t 0.6684 -s 5 -d 0 -p ack -e 40 -c 3 -i 74 -a 3 -x {4.0 1.0 1 ------- null}
h -t 0.6684 -s 5 -d 0 -p ack -e 40 -c 3 -i 74 -a 3 -x {4.0 1.0 -1 ------- null}
r -t 0.67 -s 3 -d 2 -p cbr -e 1000 -c 1 -i 73 -a 1 -x {3.0 2.0 69 ------- null}
+ -t 0.676 -s 3 -d 2 -p cbr -e 1000 -c 1 -i 78 -a 1 -x {3.0 2.0 72 ------- null}
- -t 0.676 -s 3 -d 2 -p cbr -e 1000 -c 1 -i 78 -a 1 -x {3.0 2.0 72 ------- null}
h -t 0.676 -s 3 -d 2 -p cbr -e 1000 -c 1 -i 78 -a 1 -x {3.0 2.0 -1 ------- null}
r -t 0.67672 -s 4 -d 5 -p ack -e 40 -c 3 -i 76 -a 3 -x {4.0 1.0 2 ------- null}
+ -t 0.67672 -s 5 -d 0 -p ack -e 40 -c 3 -i 76 -a 3 -x {4.0 1.0 2 ------- null}
- -t 0.67672 -s 5 -d 0 -p ack -e 40 -c 3 -i 76 -a 3 -x {4.0 1.0 2 ------- null}
h -t 0.67672 -s 5 -d 0 -p ack -e 40 -c 3 -i 76 -a 3 -x {4.0 1.0 -1 ------- null}
r -t 0.678 -s 3 -d 2 -p cbr -e 1000 -c 1 -i 75 -a 1 -x {3.0 2.0 70 ------- null}
+ -t 0.684 -s 3 -d 2 -p cbr -e 1000 -c 1 -i 79 -a 1 -x {3.0 2.0 73 ------- null}
- -t 0.684 -s 3 -d 2 -p cbr -e 1000 -c 1 -i 79 -a 1 -x {3.0 2.0 73 ------- null}
h -t 0.684 -s 3 -d 2 -p cbr -e 1000 -c 1 -i 79 -a 1 -x {3.0 2.0 -1 ------- null}
r -t 0.686 -s 3 -d 2 -p cbr -e 1000 -c 1 -i 77 -a 1 -x {3.0 2.0 71 ------- null}
r -t 0.68856 -s 5 -d 0 -p ack -e 40 -c 3 -i 74 -a 3 -x {4.0 1.0 1 ------- null}
+ -t 0.68856 -s 0 -d 1 -p ack -e 40 -c 3 -i 74 -a 3 -x {4.0 1.0 1 ------- null}