V -t * -v 1.0a5 -a 0
A -t * -n 1 -p 0 -o 0x7fffffff -c 30 -a 1
A -t * -h 1 -m 1073741823 -s 0
c -t * -i 1 -n Blue
c -t * -i 2 -n Red
c -t * -i 3 -n Green
n -t * -a 4 -s 4 -S UP -v circle -c black -i black
n -t * -a 0 -s 0 -S UP -v circle -c black -i black
n -t * -a 5 -s 5 -S UP -v circle -c black -i black
n -t * -a 1 -s 1 -S UP -v circle -c black -i black
n -t * -a 2 -s 2 -S UP -v circle -c black -i black
n -t * -a 3 -s 3 -S UP -v circle -c black -i black
l -t * -s 0 -d 1 -S UP -r 1000000 -D 0.01 -c black -o right-up
l -t * -s 0 -d 2 -S UP -r 2000000 -D 0.02 -c black -o right-down
l -t * -s 0 -d 3 -S UP -r 1000000 -D 0.01 -c black -o left-down
l -t * -s 0 -d 4 -S UP -r 2000000 -D 0.02 -c black -o left-up
l -t * -s 0 -d 5 -S UP -r 2000000 -D 0.01 -c black -o up
q -t * -s 2 -d 0 -a 0.5
q -t * -s 0 -d 2 -a 0.5
q -t * -s 3 -d 0 -a 0.5
q -t * -s 0 -d 3 -a 0.5
q -t * -s 4 -d 0 -a 0.5
q -t * -s 0 -d 4 -a 0.5
q -t * -s 5 -d 0 -a 0.5
q -t * -s 0 -d 5 -a 0.5
q -t * -s 1 -d 0 -a 0.5
q -t * -s 0 -d 1 -a 0.5
+ -t 0.1 -s 4 -d 0 -p cbr -e 1000 -c 1 -i 0 -a 1 -x {4.1 1.0 0 ------- null}
- -t 0.1 -s 4 -d 0 -p cbr -e 1000 -c 1 -i 0 -a 1 -x {4.1 1.0 0 ------- null}
h -t 0.1 -s 4 -d 0 -p cbr -e 1000 -c 1 -i 0 -a 1 -x {4.1 1.0 -1 ------- null}
+ -t 0.108 -s 4 -d 0 -p cbr -e 1000 -c 1 -i 1 -a 1 -x {4.1 1.0 1 ------- null}
- -t 0.108 -s 4 -d 0 -p cbr -e 1000 -c 1 -i 1 -a 1 -x {4.1 1.0 1 ------- null}
h -t 0.108 -s 4 -d 0 -p cbr -e 1000 -c 1 -i 1 -a 1 -x {4.1 1.0 -1 ------- null}
+ -t 0.116 -s 4 -d 0 -p cbr -e 1000 -c 1 -i 2 -a 1 -x {4.1 1.0 2 ------- null}
- -t 0.116 -s 4 -d 0 -p cbr -e 1000 -c 1 -i 2 -a 1 -x {4.1 1.0 2 ------- null}
h -t 0.116 -s 4 -d 0 -p cbr -e 1000 -c 1 -i 2 -a 1 -x {4.1 1.0 -1 ------- null}
r -t 0.124 -s 4 -d 0 -p cbr -e 1000 -c 1 -i 0 -a 1 -x {4.1 1.0 0 ------- null}
+ -t 0.124 -s 0 -d 1 -p cbr -e 1000 -c 1 -i 0 -a 1 -x {4.1 1.0 0 ------- null}
- -t 0.124 -s 0 -d 1 -p cbr -e 1000 -c 1 -i 0 -a 1 -x {4.1 1.0 0 ------- null}
h -t 0.124 -s 0 -d 1 -p cbr -e 1000 -c 1 -i 0 -a 1 -x {4.1 1.0 -1 ------- null}
+ -t 0.124 -s 4 -d 0 -p cbr -e 1000 -c 1 -i 3 -a 1 -x {4.1 1.0 3 ------- null}
- -t 0.124 -s 4 -d 0 -p cbr -e 1000 -c 1 -i 3 -a 1 -x {4.1 1.0 3 ------- null}
h -t 0.124 -s 4 -d 0 -p cbr -e 1000 -c 1 -i 3 -a 1 -x {4.1 1.0 -1 ------- null}
r -t 0.132 -s 4 -d 0 -p cbr -e 1000 -c 1 -i 1 -a 1 -x {4.1 1.0 1 ------- null}
+ -t 0.132 -s 0 -d 1 -p cbr -e 1000 -c 1 -i 1 -a 1 -x {4.1 1.0 1 ------- null}
- -t 0.132 -s 0 -d 1 -p cbr -e 1000 -c 1 -i 1 -a 1 -x {4.1 1.0 1 ------- null}
h -t 0.132 -s 0 -d 1 -p cbr -e 1000 -c 1 -i 1 -a 1 -x {4.1 1.0 -1 ------- null}
+ -t 0.132 -s 4 -d 0 -p cbr -e 1000 -c 1 -i 4 -a 1 -x {4.1 1.0 4 ------- null}
- -t 0.132 -s 4 -d 0 -p cbr -e 1000 -c 1 -i 4 -a 1 -x {4.1 1.0 4 ------- null}
h -t 0.132 -s 4 -d 0 -p cbr -e 1000 -c 1 -i 4 -a 1 -x {4.1 1.0 -1 ------- null}
r -t 0.14 -s 4 -d 0 -p cbr -e 1000 -c 1 -i 2 -a 1 -x {4.1 1.0 2 ------- null}
+ -t 0.14 -s 0 -d 1 -p cbr -e 1000 -c 1 -i 2 -a 1 -x {4.1 1.0 2 ------- null}
- -t 0.14 -s 0 -d 1 -p cbr -e 1000 -c 1 -i 2 -a 1 -x {4.1 1.0 2 ------- null}
h -t 0.14 -s 0 -d 1 -p cbr -e 1000 -c 1 -i 2 -a 1 -x {4.1 1.0 -1 ------- null}
+ -t 0.14 -s 4 -d 0 -p cbr -e 1000 -c 1 -i 5 -a 1 -x {4.1 1.0 5 ------- null}
- -t 0.14 -s 4 -d 0 -p cbr -e 1000 -c 1 -i 5 -a 1 -x {4.1 1.0 5 ------- null}
h -t 0.14 -s 4 -d 0 -p cbr -e 1000 -c 1 -i 5 -a 1 -x {4.1 1.0 -1 ------- null}
r -t 0.142 -s 0 -d 1 -p cbr -e 1000 -c 1 -i 0 -a 1 -x {4.1 1.0 0 ------- null}
r -t 0.148 -s 4 -d 0 -p cbr -e 1000 -c 1 -i 3 -a 1 -x {4.1 1.0 3 ------- null}
+ -t 0.148 -s 0 -d 1 -p cbr -e 1000 -c 1 -i 3 -a 1 -x {4.1 1.0 3 ------- null}
- -t 0.148 -s 0 -d 1 -p cbr -e 1000 -c 1 -i 3 -a 1 -x {4.1 1.0 3 ------- null}
h -t 0.148 -s 0 -d 1 -p cbr -e 1000 -c 1 -i 3 -a 1 -x {4.1 1.0 -1 ------- null}
+ -t 0.148 -s 4 -d 0 -p cbr -e 1000 -c 1 -i 6 -a 1 -x {4.1 1.0 6 ------- null}
- -t 0.148 -s 4 -d 0 -p cbr -e 1000 -c 1 -i 6 -a 1 -x {4.1 1.0 6 ------- null}
h -t 0.148 -s 4 -d 0 -p cbr -e 1000 -c 1 -i 6 -a 1 -x {4.1 1.0 -1 ------- null}
r -t 0.15 -s 0 -d 1 -p cbr -e 1000 -c 1 -i 1 -a 1 -x {4.1 1.0 1 ------- null}
r -t 0.156 -s 4 -d 0 -p cbr -e 1000 -c 1 -i 4 -a 1 -x {4.1 1.0 4 ------- null}
+ -t 0.156 -s 0 -d 1 -p cbr -e 1000 -c 1 -i 4 -a 1 -x {4.1 1.0 4 ------- null}
- -t 0.156 -s 0 -d 1 -p cbr -e 1000 -c 1 -i 4 -a 1 -x {4.1 1.0 4 ------- null}
h -t 0.156 -s 0 -d 1 -p cbr -e 1000 -c 1 -i 4 -a 1 -x {4.1 1.0 -1 ------- null}
+ -t 0.156 -s 4 -d 0 -p cbr -e 1000 -c 1 -i 7 -a 1 -x {4.1 1.0 7 ------- null}
- -t 0.156 -s 4 -d 0 -p cbr -e 1000 -c 1 -i 7 -a 1 -x {4.1 1.0 7 ------- null}
h -t 0.156 -s 4 -d 0 -p cbr -e 1000 -c 1 -i 7 -a 1 -x {4.1 1.0 -1 ------- null}
r -t 0.158 -s 0 -d 1 -p cbr -e 1000 -c 1 -i 2 -a 1 -x {4.1 1.0 2 ------- null}
r -t 0.164 -s 4 -d 0 -p cbr -e 1000 -c 1 -i 5 -a 1 -x {4.1 1.0 5 ------- null}
+ -t 0.164 -s 0 -d 1 -p cbr -e 1000 -c 1 -i 5 -a 1 -x {4.1 1.0 5 ------- null}
- -t 0.164 -s 0 -d 1 -p cbr -e 1000 -c 1 -i 5 -a 1 -x {4.1 1.0 5 ------- null}
h -t 0.164 -s 0 -d 1 -p cbr -e 1000 -c 1 -i 5 -a 1 -x {4.1 1.0 -1 ------- null}
+ -t 0.164 -s 4 -d 0 -p cbr -e 1000 -c 1 -i 8 -a 1 -x {4.1 1.0 8 ------- null}
- -t 0.164 -s 4 -d 0 -p cbr -e 1000 -c 1 -i 8 -a 1 -x {4.1 1.0 8 ------- null}
h -t 0.164 -s 4 -d 0 -p cbr -e 1000 -c 1 -i 8 -a 1 -x {4.1 1.0 -1 ------- null}
r -t 0.166 -s 0 -d 1 -p cbr -e 1000 -c 1 -i 3 -a 1 -x {4.1 1.0 3 ------- null}
r -t 0.172 -s 4 -d 0 -p cbr -e 1000 -c 1 -i 6 -a 1 -x {4.1 1.0 6 ------- null}
+ -t 0.172 -s 0 -d 1 -p cbr -e 1000 -c 1 -i 6 -a 1 -x {4.1 1.0 6 ------- null}
- -t 0.172 -s 0 -d 1 -p cbr -e 1000 -c 1 -i 6 -a 1 -x {4.1 1.0 6 ------- null}
h -t 0.172 -s 0 -d 1 -p cbr -e 1000 -c 1 -i 6 -a 1 -x {4.1 1.0 -1 ------- null}
+ -t 0.172 -s 4 -d 0 -p cbr -e 1000 -c 1 -i 9 -a 1 -x {4.1 1.0 9 ------- null}
- -t 0.172 -s 4 -d 0 -p cbr -e 1000 -c 1 -i 9 -a 1 -x {4.1 1.0 9 ------- null}
h -t 0.172 -s 4 -d 0 -p cbr -e 1000 -c 1 -i 9 -a 1 -x {4.1 1.0 -1 ------- null}
r -t 0.174 -s 0 -d 1 -p cbr -e 1000 -c 1 -i 4 -a 1 -x {4.1 1.0 4 ------- null}
r -t 0.18 -s 4 -d 0 -p cbr -e 1000 -c 1 -i 7 -a 1 -x {4.1 1.0 7 ------- null}
+ -t 0.18 -s 0 -d 1 -p cbr -e 1000 -c 1 -i 7 -a 1 -x {4.1 1.0 7 ------- null}
- -t 0.18 -s 0 -d 1 -p cbr -e 1000 -c 1 -i 7 -a 1 -x {4.1 1.0 7 ------- null}
h -t 0.18 -s 0 -d 1 -p cbr -e 1000 -c 1 -i 7 -a 1 -x {4.1 1.0 -1 ------- null}
+ -t 0.18 -s 4 -d 0 -p cbr -e 1000 -c 1 -i 10 -a 1 -x {4.1 1.0 10 ------- null}
- -t 0.18 -s 4 -d 0 -p cbr -e 1000 -c 1 -i 10 -a 1 -x {4.1 1.0 10 ------- null}
h -t 0.18 -s 4 -d 0 -p cbr -e 1000 -c 1 -i 10 -a 1 -x {4.1 1.0 -1 ------- null}
r -t 0.182 -s 0 -d 1 -p cbr -e 1000 -c 1 -i 5 -a 1 -x {4.1 1.0 5 ------- null}
r -t 0.188 -s 4 -d 0 -p cbr -e 1000 -c 1 -i 8 -a 1 -x {4.1 1.0 8 ------- null}
+ -t 0.188 -s 0 -d 1 -p cbr -e 1000 -c 1 -i 8 -a 1 -x {4.1 1.0 8 ------- null}
- -t 0.188 -s 0 -d 1 -p cbr -e 1000 -c 1 -i 8 -a 1 -x {4.1 1.0 8 ------- null}
h -t 0.188 -s 0 -d 1 -p cbr -e 1000 -c 1 -i 8 -a 1 -x {4.1 1.0 -1 ------- null}
+ -t 0.188 -s 4 -d 0 -p cbr -e 1000 -c 1 -i 11 -a 1 -x {4.1 1.0 11 ------- null}
- -t 0.188 -s 4 -d 0 -p cbr -e 1000 -c 1 -i 11 -a 1 -x {4.1 1.0 11 ------- null}
h -t 0.188 -s 4 -d 0 -p cbr -e 1000 -c 1 -i 11 -a 1 -x {4.1 1.0 -1 ------- null}
r -t 0.19 -s 0 -d 1 -p cbr -e 1000 -c 1 -i 6 -a 1 -x {4.1 1.0 6 ------- null}
r -t 0.196 -s 4 -d 0 -p cbr -e 1000 -c 1 -i 9 -a 1 -x {4.1 1.0 9 ------- null}
+ -t 0.196 -s 0 -d 1 -p cbr -e 1000 -c 1 -i 9 -a 1 -x {4.1 1.0 9 ------- null}
- -t 0.196 -s 0 -d 1 -p cbr -e 1000 -c 1 -i 9 -a 1 -x {4.1 1.0 9 ------- null}
h -t 0.196 -s 0 -d 1 -p cbr -e 1000 -c 1 -i 9 -a 1 -x {4.1 1.0 -1 ------- null}
+ -t 0.196 -s 4 -d 0 -p cbr -e 1000 -c 1 -i 12 -a 1 -x {4.1 1.0 12 ------- null}
- -t 0.196 -s 4 -d 0 -p cbr -e 1000 -c 1 -i 12 -a 1 -x {4.1 1.0 12 ------- null}
h -t 0.196 -s 4 -d 0 -p cbr -e 1000 -c 1 -i 12 -a 1 -x {4.1 1.0 -1 ------- null}
r -t 0.198 -s 0 -d 1 -p cbr -e 1000 -c 1 -i 7 -a 1 -x {4.1 1.0 7 ------- null}
r -t 0.204 -s 4 -d 0 -p cbr -e 1000 -c 1 -i 10 -a 1 -x {4.1 1.0 10 ------- null}
+ -t 0.204 -s 0 -d 1 -p cbr -e 1000 -c 1 -i 10 -a 1 -x {4.1 1.0 10 ------- null}
- -t 0.204 -s 0 -d 1 -p cbr -e 1000 -c 1 -i 10 -a 1 -x {4.1 1.0 10 ------- null}
h -t 0.204 -s 0 -d 1 -p cbr -e 1000 -c 1 -i 10 -a 1 -x {4.1 1.0 -1 ------- null}
+ -t 0.204 -s 4 -d 0 -p cbr -e 1000 -c 1 -i 13 -a 1 -x {4.1 1.0 13 ------- null}
- -t 0.204 -s 4 -d 0 -p cbr -e 1000 -c 1 -i 13 -a 1 -x {4.1 1.0 13 ------- null}
h -t 0.204 -s 4 -d 0 -p cbr -e 1000 -c 1 -i 13 -a 1 -x {4.1 1.0 -1 ------- null}
r -t 0.206 -s 0 -d 1 -p cbr -e 1000 -c 1 -i 8 -a 1 -x {4.1 1.0 8 ------- null}
r -t 0.212 -s 4 -d 0 -p cbr -e 1000 -c 1 -i 11 -a 1 -x {4.1 1.0 11 ------- null}
+ -t 0.212 -s 0 -d 1 -p cbr -e 1000 -c 1 -i 11 -a 1 -x {4.1 1.0 11 ------- null}
- -t 0.212 -s 0 -d 1 -p cbr -e 1000 -c 1 -i 11 -a 1 -x {4.1 1.0 11 ------- null}
h -t 0.212 -s 0 -d 1 -p cbr -e 1000 -c 1 -i 11 -a 1 -x {4.1 1.0 -1 ------- null}
+ -t 0.212 -s 4 -d 0 -p cbr -e 1000 -c 1 -i 14 -a 1 -x {4.1 1.0 14 ------- null}
- -t 0.212 -s 4 -d 0 -p cbr -e 1000 -c 1 -i 14 -a 1 -x {4.1 1.0 14 ------- null}
h -t 0.212 -s 4 -d 0 -p cbr -e 1000 -c 1 -i 14 -a 1 -x {4.1 1.0 -1 ------- null}
r -t 0.214 -s 0 -d 1 -p cbr -e 1000 -c 1 -i 9 -a 1 -x {4.1 1.0 9 ------- null}
r -t 0.22 -s 4 -d 0 -p cbr -e 1000 -c 1 -i 12 -a 1 -x {4.1 1.0 12 ------- null}
+ -t 0.22 -s 0 -d 1 -p cbr -e 1000 -c 1 -i 12 -a 1 -x {4.1 1.0 12 ------- null}
- -t 0.22 -s 0 -d 1 -p cbr -e 1000 -c 1 -i 12 -a 1 -x {4.1 1.0 12 ------- null}
h -t 0.22 -s 0 -d 1 -p cbr -e 1000 -c 1 -i 12 -a 1 -x {4.1 1.0 -1 ------- null}
+ -t 0.22 -s 4 -d 0 -p cbr -e 1000 -c 1 -i 15 -a 1 -x {4.1 1.0 15 ------- null}
- -t 0.22 -s 4 -d 0 -p cbr -e 1000 -c 1 -i 15 -a 1 -x {4.1 1.0 15 ------- null}
h -t 0.22 -s 4 -d 0 -p cbr -e 1000 -c 1 -i 15 -a 1 -x {4.1 1.0 -1 ------- null}
r -t 0.222 -s 0 -d 1 -p cbr -e 1000 -c 1 -i 10 -a 1 -x {4.1 1.0 10 ------- null}
r -t 0.228 -s 4 -d 0 -p cbr -e 1000 -c 1 -i 13 -a 1 -x {4.1 1.0 13 ------- null}
+ -t 0.228 -s 0 -d 1 -p cbr -e 1000 -c 1 -i 13 -a 1 -x {4.1 1.0 13 ------- null}
- -t 0.228 -s 0 -d 1 -p cbr -e 1000 -c 1 -i 13 -a 1 -x {4.1 1.0 13 ------- null}
h -t 0.228 -s 0 -d 1 -p cbr -e 1000 -c 1 -i 13 -a 1 -x {4.1 1.0 -1 ------- null}
+ -t 0.228 -s 4 -d 0 -p cbr -e 1000 -c 1 -i 16 -a 1 -x {4.1 1.0 16 ------- null}
- -t 0.228 -s 4 -d 0 -p cbr -e 1000 -c 1 -i 16 -a 1 -x {4.1 1.0 16 ------- null}
h -t 0.228 -s 4 -d 0 -p cbr -e 1000 -c 1 -i 16 -a 1 -x {4.1 1.0 -1 ------- null}
r -t 0.23 -s 0 -d 1 -p cbr -e 1000 -c 1 -i 11 -a 1 -x {4.1 1.0 11 ------- null}
r -t 0.236 -s 4 -d 0 -p cbr -e 1000 -c 1 -i 14 -a 1 -x {4.1 1.0 14 ------- null}
+ -t 0.236 -s 0 -d 1 -p cbr -e 1000 -c 1 -i 14 -a 1 -x {4.1 1.0 14 ------- null}
- -t 0.236 -s 0 -d 1 -p cbr -e 1000 -c 1 -i 14 -a 1 -x {4.1 1.0 14 ------- null}
h -t 0.236 -s 0 -d 1 -p cbr -e 1000 -c 1 -i 14 -a 1 -x {4.1 1.0 -1 ------- null}
+ -t 0.236 -s 4 -d 0 -p cbr -e 1000 -c 1 -i 17 -a 1 -x {4.1 1.0 17 ------- null}
- -t 0.236 -s 4 -d 0 -p cbr -e 1000 -c 1 -i 17 -a 1 -x {4.1 1.0 17 ------- null}
h -t 0.236 -s 4 -d 0 -p cbr -e 1000 -c 1 -i 17 -a 1 -x {4.1 1.0 -1 ------- null}
r -t 0.238 -s 0 -d 1 -p cbr -e 1000 -c 1 -i 12 -a 1 -x {4.1 1.0 12 ------- null}
r -t 0.244 -s 4 -d 0 -p cbr -e 1000 -c 1 -i 15 -a 1 -x {4.1 1.0 15 ------- null}
+ -t 0.244 -s 0 -d 1 -p cbr -e 1000 -c 1 -i 15 -a 1 -x {4.1 1.0 15 ------- null}
- -t 0.244 -s 0 -d 1 -p cbr -e 1000 -c 1 -i 15 -a 1 -x {4.1 1.0 15 ------- null}
h -t 0.244 -s 0 -d 1 -p cbr -e 1000 -c 1 -i 15 -a 1 -x {4.1 1.0 -1 ------- null}
+ -t 0.244 -s 4 -d 0 -p cbr -e 1000 -c 1 -i 18 -a 1 -x {4.1 1.0 18 ------- null}
- -t 0.244 -s 4 -d 0 -p cbr -e 1000 -c 1 -i 18 -a 1 -x {4.1 1.0 18 ------- null}
h -t 0.244 -s 4 -d 0 -p cbr -e 1000 -c 1 -i 18 -a 1 -x {4.1 1.0 -1 ------- null}
r -t 0.246 -s 0 -d 1 -p cbr -e 1000 -c 1 -i 13 -a 1 -x {4.1 1.0 13 ------- null}
r -t 0.252 -s 4 -d 0 -p cbr -e 1000 -c 1 -i 16 -a 1 -x {4.1 1.0 16 ------- null}
+ -t 0.252 -s 0 -d 1 -p cbr -e 1000 -c 1 -i 16 -a 1 -x {4.1 1.0 16 ------- null}
- -t 0.252 -s 0 -d 1 -p cbr -e 1000 -c 1 -i 16 -a 1 -x {4.1 1.0 16 ------- null}
h -t 0.252 -s 0 -d 1 -p cbr -e 1000 -c 1 -i 16 -a 1 -x {4.1 1.0 -1 ------- null}
+ -t 0.252 -s 4 -d 0 -p cbr -e 1000 -c 1 -i 19 -a 1 -x {4.1 1.0 19 ------- null}
- -t 0.252 -s 4 -d 0 -p cbr -e 1000 -c 1 -i 19 -a 1 -x {4.1 1.0 19 ------- null}
h -t 0.252 -s 4 -d 0 -p cbr -e 1000 -c 1 -i 19 -a 1 -x {4.1 1.0 -1 ------- null}
r -t 0.254 -s 0 -d 1 -p cbr -e 1000 -c 1 -i 14 -a 1 -x {4.1 1.0 14 ------- null}
r -t 0.26 -s 4 -d 0 -p cbr -e 1000 -c 1 -i 17 -a 1 -x {4.1 1.0 17 ------- null}
+ -t 0.26 -s 0 -d 1 -p cbr -e 1000 -c 1 -i 17 -a 1 -x {4.1 1.0 17 ------- null}
- -t 0.26 -s 0 -d 1 -p cbr -e 1000 -c 1 -i 17 -a 1 -x {4.1 1.0 17 ------- null}
h -t 0.26 -s 0 -d 1 -p cbr -e 1000 -c 1 -i 17 -a 1 -x {4.1 1.0 -1 ------- null}
+ -t 0.26 -s 4 -d 0 -p cbr -e 1000 -c 1 -i 20 -a 1 -x {4.1 1.0 20 ------- null}
- -t 0.26 -s 4 -d 0 -p cbr -e 1000 -c 1 -i 20 -a 1 -x {4.1 1.0 20 ------- null}
h -t 0.26 -s 4 -d 0 -p cbr -e 1000 -c 1 -i 20 -a 1 -x {4.1 1.0 -1 ------- null}
r -t 0.262 -s 0 -d 1 -p cbr -e 1000 -c 1 -i 15 -a 1 -x {4.1 1.0 15 ------- null}
r -t 0.268 -s 4 -d 0 -p cbr -e 1000 -c 1 -i 18 -a 1 -x {4.1 1.0 18 ------- null}
+ -t 0.268 -s 0 -d 1 -p cbr -e 1000 -c 1 -i 18 -a 1 -x {4.1 1.0 18 ------- null}
- -t 0.268 -s 0 -d 1 -p cbr -e 1000 -c 1 -i 18 -a 1 -x {4.1 1.0 18 ------- null}
h -t 0.268 -s 0 -d 1 -p cbr -e 1000 -c 1 -i 18 -a 1 -x {4.1 1.0 -1 ------- null}
+ -t 0.268 -s 4 -d 0 -p cbr -e 1000 -c 1 -i 21 -a 1 -x {4.1 1.0 21 ------- null}
- -t 0.268 -s 4 -d 0 -p cbr -e 1000 -c 1 -i 21 -a 1 -x {4.1 1.0 21 ------- null}
h -t 0.268 -s 4 -d 0 -p cbr -e 1000 -c 1 -i 21 -a 1 -x {4.1 1.0 -1 ------- null}
r -t 0.27 -s 0 -d 1 -p cbr -e 1000 -c 1 -i 16 -a 1 -x {4.1 1.0 16 ------- null}
r -t 0.276 -s 4 -d 0 -p cbr -e 1000 -c 1 -i 19 -a 1 -x {4.1 1.0 19 ------- null}
+ -t 0.276 -s 0 -d 1 -p cbr -e 1000 -c 1 -i 19 -a 1 -x {4.1 1.0 19 ------- null}
- -t 0.276 -s 0 -d 1 -p cbr -e 1000 -c 1 -i 19 -a 1 -x {4.1 1.0 19 ------- null}
h -t 0.276 -s 0 -d 1 -p cbr -e 1000 -c 1 -i 19 -a 1 -x {4.1 1.0 -1 ------- null}
+ -t 0.276 -s 4 -d 0 -p cbr -e 1000 -c 1 -i 22 -a 1 -x {4.1 1.0 22 ------- null}
- -t 0.276 -s 4 -d 0 -p cbr -e 1000 -c 1 -i 22 -a 1 -x {4.1 1.0 22 ------- null}
h -t 0.276 -s 4 -d 0 -p cbr -e 1000 -c 1 -i 22 -a 1 -x {4.1 1.0 -1 ------- null}
r -t 0.278 -s 0 -d 1 -p cbr -e 1000 -c 1 -i 17 -a 1 -x {4.1 1.0 17 ------- null}
r -t 0.284 -s 4 -d 0 -p cbr -e 1000 -c 1 -i 20 -a 1 -x {4.1 1.0 20 ------- null}
+ -t 0.284 -s 0 -d 1 -p cbr -e 1000 -c 1 -i 20 -a 1 -x {4.1 1.0 20 ------- null}
- -t 0.284 -s 0 -d 1 -p cbr -e 1000 -c 1 -i 20 -a 1 -x {4.1 1.0 20 ------- null}
h -t 0.284 -s 0 -d 1 -p cbr -e 1000 -c 1 -i 20 -a 1 -x {4.1 1.0 -1 ------- null}
+ -t 0.284 -s 4 -d 0 -p cbr -e 1000 -c 1 -i 23 -a 1 -x {4.1 1.0 23 ------- null}
- -t 0.284 -s 4 -d 0 -p cbr -e 1000 -c 1 -i 23 -a 1 -x {4.1 1.0 23 ------- null}
h -t 0.284 -s 4 -d 0 -p cbr -e 1000 -c 1 -i 23 -a 1 -x {4.1 1.0 -1 ------- null}
r -t 0.286 -s 0 -d 1 -p cbr -e 1000 -c 1 -i 18 -a 1 -x {4.1 1.0 18 ------- null}
r -t 0.292 -s 4 -d 0 -p cbr -e 1000 -c 1 -i 21 -a 1 -x {4.1 1.0 21 ------- null}
+ -t 0.292 -s 0 -d 1 -p cbr -e 1000 -c 1 -i 21 -a 1 -x {4.1 1.0 21 ------- null}
- -t 0.292 -s 0 -d 1 -p cbr -e 1000 -c 1 -i 21 -a 1 -x {4.1 1.0 21 ------- null}
h -t 0.292 -s 0 -d 1 -p cbr -e 1000 -c 1 -i 21 -a 1 -x {4.1 1.0 -1 ------- null}
+ -t 0.292 -s 4 -d 0 -p cbr -e 1000 -c 1 -i 24 -a 1 -x {4.1 1.0 24 ------- null}
- -t 0.292 -s 4 -d 0 -p cbr -e 1000 -c 1 -i 24 -a 1 -x {4.1 1.0 24 ------- null}
h -t 0.292 -s 4 -d 0 -p cbr -e 1000 -c 1 -i 24 -a 1 -x {4.1 1.0 -1 ------- null}
r -t 0.294 -s 0 -d 1 -p cbr -e 1000 -c 1 -i 19 -a 1 -x {4.1 1.0 19 ------- null}
r -t 0.3 -s 4 -d 0 -p cbr -e 1000 -c 1 -i 22 -a 1 -x {4.1 1.0 22 ------- null}
+ -t 0.3 -s 0 -d 1 -p cbr -e 1000 -c 1 -i 22 -a 1 -x {4.1 1.0 22 ------- null}
- -t 0.3 -s 0 -d 1 -p cbr -e 1000 -c 1 -i 22 -a 1 -x {4.1 1.0 22 ------- null}
h -t 0.3 -s 0 -d 1 -p cbr -e 1000 -c 1 -i 22 -a 1 -x {4.1 1.0 -1 ------- null}
+ -t 0.3 -s 4 -d 0 -p cbr -e 1000 -c 1 -i 25 -a 1 -x {4.1 1.0 25 ------- null}
- -t 0.3 -s 4 -d 0 -p cbr -e 1000 -c 1 -i 25 -a 1 -x {4.1 1.0 25 ------- null}
h -t 0.3 -s 4 -d 0 -p cbr -e 1000 -c 1 -i 25 -a 1 -x {4.1 1.0 -1 ------- null}
r -t 0.302 -s 0 -d 1 -p cbr -e 1000 -c 1 -i 20 -a 1 -x {4.1 1.0 20 ------- null}
r -t 0.308 -s 4 -d 0 -p cbr -e 1000 -c 1 -i 23 -a 1 -x {4.1 1.0 23 ------- null}
+ -t 0.308 -s 0 -d 1 -p cbr -e 1000 -c 1 -i 23 -a 1 -x {4.1 1.0 23 ------- null}
- -t 0.308 -s 0 -d 1 -p cbr -e 1000 -c 1 -i 23 -a 1 -x {4.1 1.0 23 ------- null}
h -t 0.308 -s 0 -d 1 -p cbr -e 1000 -c 1 -i 23 -a 1 -x {4.1 1.0 -1 ------- null}
+ -t 0.308 -s 4 -d 0 -p cbr -e 1000 -c 1 -i 26 -a 1 -x {4.1 1.0 26 ------- null}
- -t 0.308 -s 4 -d 0 -p cbr -e 1000 -c 1 -i 26 -a 1 -x {4.1 1.0 26 ------- null}
h -t 0.308 -s 4 -d 0 -p cbr -e 1000 -c 1 -i 26 -a 1 -x {4.1 1.0 -1 ------- null}
r -t 0.31 -s 0 -d 1 -p cbr -e 1000 -c 1 -i 21 -a 1 -x {4.1 1.0 21 ------- null}
r -t 0.316 -s 4 -d 0 -p cbr -e 1000 -c 1 -i 24 -a 1 -x {4.1 1.0 24 ------- null}
+ -t 0.316 -s 0 -d 1 -p cbr -e 1000 -c 1 -i 24 -a 1 -x {4.1 1.0 24 ------- null}
- -t 0.316 -s 0 -d 1 -p cbr -e 1000 -c 1 -i 24 -a 1 -x {4.1 1.0 24 ------- null}
h -t 0.316 -s 0 -d 1 -p cbr -e 1000 -c 1 -i 24 -a 1 -x {4.1 1.0 -1 ------- null}
+ -t 0.316 -s 4 -d 0 -p cbr -e 1000 -c 1 -i 27 -a 1 -x {4.1 1.0 27 ------- null}
- -t 0.316 -s 4 -d 0 -p cbr -e 1000 -c 1 -i 27 -a 1 -x {4.1 1.0 27 ------- null}
h -t 0.316 -s 4 -d 0 -p cbr -e 1000 -c 1 -i 27 -a 1 -x {4.1 1.0 -1 ------- null}
r -t 0.318 -s 0 -d 1 -p cbr -e 1000 -c 1 -i 22 -a 1 -x {4.1 1.0 22 ------- null}
r -t 0.324 -s 4 -d 0 -p cbr -e 1000 -c 1 -i 25 -a 1 -x {4.1 1.0 25 ------- null}
+ -t 0.324 -s 0 -d 1 -p cbr -e 1000 -c 1 -i 25 -a 1 -x {4.1 1.0 25 ------- null}
- -t 0.324 -s 0 -d 1 -p cbr -e 1000 -c 1 -i 25 -a 1 -x {4.1 1.0 25 ------- null}
h -t 0.324 -s 0 -d 1 -p cbr -e 1000 -c 1 -i 25 -a 1 -x {4.1 1.0 -1 ------- null}
+ -t 0.324 -s 4 -d 0 -p cbr -e 1000 -c 1 -i 28 -a 1 -x {4.1 1.0 28 ------- null}
- -t 0.324 -s 4 -d 0 -p cbr -e 1000 -c 1 -i 28 -a 1 -x {4.1 1.0 28 ------- null}
h -t 0.324 -s 4 -d 0 -p cbr -e 1000 -c 1 -i 28 -a 1 -x {4.1 1.0 -1 ------- null}
r -t 0.326 -s 0 -d 1 -p cbr -e 1000 -c 1 -i 23 -a 1 -x {4.1 1.0 23 ------- null}
r -t 0.332 -s 4 -d 0 -p cbr -e 1000 -c 1 -i 26 -a 1 -x {4.1 1.0 26 ------- null}
+ -t 0.332 -s 0 -d 1 -p cbr -e 1000 -c 1 -i 26 -a 1 -x {4.1 1.0 26 ------- null}
- -t 0.332 -s 0 -d 1 -p cbr -e 1000 -c 1 -i 26 -a 1 -x {4.1 1.0 26 ------- null}
h -t 0.332 -s 0 -d 1 -p cbr -e 1000 -c 1 -i 26 -a 1 -x {4.1 1.0 -1 ------- null}
+ -t 0.332 -s 4 -d 0 -p cbr -e 1000 -c 1 -i 29 -a 1 -x {4.1 1.0 29 ------- null}
- -t 0.332 -s 4 -d 0 -p cbr -e 1000 -c 1 -i 29 -a 1 -x {4.1 1.0 29 ------- null}
h -t 0.332 -s 4 -d 0 -p cbr -e 1000 -c 1 -i 29 -a 1 -x {4.1 1.0 -1 ------- null}
r -t 0.334 -s 0 -d 1 -p cbr -e 1000 -c 1 -i 24 -a 1 -x {4.1 1.0 24 ------- null}
r -t 0.34 -s 4 -d 0 -p cbr -e 1000 -c 1 -i 27 -a 1 -x {4.1 1.0 27 ------- null}
+ -t 0.34 -s 0 -d 1 -p cbr -e 1000 -c 1 -i 27 -a 1 -x {4.1 1.0 27 ------- null}
- -t 0.34 -s 0 -d 1 -p cbr -e 1000 -c 1 -i 27 -a 1 -x {4.1 1.0 27 ------- null}
h -t 0.34 -s 0 -d 1 -p cbr -e 1000 -c 1 -i 27 -a 1 -x {4.1 1.0 -1 ------- null}
+ -t 0.34 -s 4 -d 0 -p cbr -e 1000 -c 1 -i 30 -a 1 -x {4.1 1.0 30 ------- null}
- -t 0.34 -s 4 -d 0 -p cbr -e 1000 -c 1 -i 30 -a 1 -x {4.1 1.0 30 ------- null}
h -t 0.34 -s 4 -d 0 -p cbr -e 1000 -c 1 -i 30 -a 1 -x {4.1 1.0 -1 ------- null}
r -t 0.342 -s 0 -d 1 -p cbr -e 1000 -c 1 -i 25 -a 1 -x {4.1 1.0 25 ------- null}
r -t 0.348 -s 4 -d 0 -p cbr -e 1000 -c 1 -i 28 -a 1 -x {4.1 1.0 28 ------- null}
+ -t 0.348 -s 0 -d 1 -p cbr -e 1000 -c 1 -i 28 -a 1 -x {4.1 1.0 28 ------- null}
- -t 0.348 -s 0 -d 1 -p cbr -e 1000 -c 1 -i 28 -a 1 -x {4.1 1.0 28 ------- null}
h -t 0.348 -s 0 -d 1 -p cbr -e 1000 -c 1 -i 28 -a 1 -x {4.1 1.0 -1 ------- null}
+ -t 0.348 -s 4 -d 0 -p cbr -e 1000 -c 1 -i 31 -a 1 -x {4.1 1.0 31 ------- null}
- -t 0.348 -s 4 -d 0 -p cbr -e 1000 -c 1 -i 31 -a 1 -x {4.1 1.0 31 ------- null}
h -t 0.348 -s 4 -d 0 -p cbr -e 1000 -c 1 -i 31 -a 1 -x {4.1 1.0 -1 ------- null}
r -t 0.35 -s 0 -d 1 -p cbr -e 1000 -c 1 -i 26 -a 1 -x {4.1 1.0 26 ------- null}
r -t 0.356 -s 4 -d 0 -p cbr -e 1000 -c 1 -i 29 -a 1 -x {4.1 1.0 29 ------- null}
+ -t 0.356 -s 0 -d 1 -p cbr -e 1000 -c 1 -i 29 -a 1 -x {4.1 1.0 29 ------- null}
- -t 0.356 -s 0 -d 1 -p cbr -e 1000 -c 1 -i 29 -a 1 -x {4.1 1.0 29 ------- null}
h -t 0.356 -s 0 -d 1 -p cbr -e 1000 -c 1 -i 29 -a 1 -x {4.1 1.0 -1 ------- null}
+ -t 0.356 -s 4 -d 0 -p cbr -e 1000 -c 1 -i 32 -a 1 -x {4.1 1.0 32 ------- null}
- -t 0.356 -s 4 -d 0 -p cbr -e 1000 -c 1 -i 32 -a 1 -x {4.1 1.0 32 ------- null}
h -t 0.356 -s 4 -d 0 -p cbr -e 1000 -c 1 -i 32 -a 1 -x {4.1 1.0 -1 ------- null}
r -t 0.358 -s 0 -d 1 -p cbr -e 1000 -c 1 -i 27 -a 1 -x {4.1 1.0 27 ------- null}
r -t 0.364 -s 4 -d 0 -p cbr -e 1000 -c 1 -i 30 -a 1 -x {4.1 1.0 30 ------- null}
+ -t 0.364 -s 0 -d 1 -p cbr -e 1000 -c 1 -i 30 -a 1 -x {4.1 1.0 30 ------- null}
- -t 0.364 -s 0 -d 1 -p cbr -e 1000 -c 1 -i 30 -a 1 -x {4.1 1.0 30 ------- null}
h -t 0.364 -s 0 -d 1 -p cbr -e 1000 -c 1 -i 30 -a 1 -x {4.1 1.0 -1 ------- null}
+ -t 0.364 -s 4 -d 0 -p cbr -e 1000 -c 1 -i 33 -a 1 -x {4.1 1.0 33 ------- null}
- -t 0.364 -s 4 -d 0 -p cbr -e 1000 -c 1 -i 33 -a 1 -x {4.1 1.0 33 ------- null}
h -t 0.364 -s 4 -d 0 -p cbr -e 1000 -c 1 -i 33 -a 1 -x {4.1 1.0 -1 ------- null}
r -t 0.366 -s 0 -d 1 -p cbr -e 1000 -c 1 -i 28 -a 1 -x {4.1 1.0 28 ------- null}
r -t 0.372 -s 4 -d 0 -p cbr -e 1000 -c 1 -i 31 -a 1 -x {4.1 1.0 31 ------- null}
+ -t 0.372 -s 0 -d 1 -p cbr -e 1000 -c 1 -i 31 -a 1 -x {4.1 1.0 31 ------- null}
- -t 0.372 -s 0 -d 1 -p cbr -e 1000 -c 1 -i 31 -a 1 -x {4.1 1.0 31 ------- null}
h -t 0.372 -s 0 -d 1 -p cbr -e 1000 -c 1 -i 31 -a 1 -x {4.1 1.0 -1 ------- null}
+ -t 0.372 -s 4 -d 0 -p cbr -e 1000 -c 1 -i 34 -a 1 -x {4.1 1.0 34 ------- null}
- -t 0.372 -s 4 -d 0 -p cbr -e 1000 -c 1 -i 34 -a 1 -x {4.1 1.0 34 ------- null}
h -t 0.372 -s 4 -d 0 -p cbr -e 1000 -c 1 -i 34 -a 1 -x {4.1 1.0 -1 ------- null}
r -t 0.374 -s 0 -d 1 -p cbr -e 1000 -c 1 -i 29 -a 1 -x {4.1 1.0 29 ------- null}
r -t 0.38 -s 4 -d 0 -p cbr -e 1000 -c 1 -i 32 -a 1 -x {4.1 1.0 32 ------- null}
+ -t 0.38 -s 0 -d 1 -p cbr -e 1000 -c 1 -i 32 -a 1 -x {4.1 1.0 32 ------- null}
- -t 0.38 -s 0 -d 1 -p cbr -e 1000 -c 1 -i 32 -a 1 -x {4.1 1.0 32 ------- null}
h -t 0.38 -s 0 -d 1 -p cbr -e 1000 -c 1 -i 32 -a 1 -x {4.1 1.0 -1 ------- null}
+ -t 0.38 -s 4 -d 0 -p cbr -e 1000 -c 1 -i 35 -a 1 -x {4.1 1.0 35 ------- null}
- -t 0.38 -s 4 -d 0 -p cbr -e 1000 -c 1 -i 35 -a 1 -x {4.1 1.0 35 ------- null}
h -t 0.38 -s 4 -d 0 -p cbr -e 1000 -c 1 -i 35 -a 1 -x {4.1 1.0 -1 ------- null}
r -t 0.382 -s 0 -d 1 -p cbr -e 1000 -c 1 -i 30 -a 1 -x {4.1 1.0 30 ------- null}
r -t 0.388 -s 4 -d 0 -p cbr -e 1000 -c 1 -i 33 -a 1 -x {4.1 1.0 33 ------- null}
+ -t 0.388 -s 0 -d 1 -p cbr -e 1000 -c 1 -i 33 -a 1 -x {4.1 1.0 33 ------- null}
- -t 0.388 -s 0 -d 1 -p cbr -e 1000 -c 1 -i 33 -a 1 -x {4.1 1.0 33 ------- null}
h -t 0.388 -s 0 -d 1 -p cbr -e 1000 -c 1 -i 33 -a 1 -x {4.1 1.0 -1 ------- null}
+ -t 0.388 -s 4 -d 0 -p cbr -e 1000 -c 1 -i 36 -a 1 -x {4.1 1.0 36 ------- null}
- -t 0.388 -s 4 -d 0 -p cbr -e 1000 -c 1 -i 36 -a 1 -x {4.1 1.0 36 ------- null}
h -t 0.388 -s 4 -d 0 -p cbr -e 1000 -c 1 -i 36 -a 1 -x {4.1 1.0 -1 ------- null}
r -t 0.39 -s 0 -d 1 -p cbr -e 1000 -c 1 -i 31 -a 1 -x {4.1 1.0 31 ------- null}
r -t 0.396 -s 4 -d 0 -p cbr -e 1000 -c 1 -i 34 -a 1 -x {4.1 1.0 34 ------- null}
+ -t 0.396 -s 0 -d 1 -p cbr -e 1000 -c 1 -i 34 -a 1 -x {4.1 1.0 34 ------- null}
- -t 0.396 -s 0 -d 1 -p cbr -e 1000 -c 1 -i 34 -a 1 -x {4.1 1.0 34 ------- null}
h -t 0.396 -s 0 -d 1 -p cbr -e 1000 -c 1 -i 34 -a 1 -x {4.1 1.0 -1 ------- null}
+ -t 0.396 -s 4 -d 0 -p cbr -e 1000 -c 1 -i 37 -a 1 -x {4.1 1.0 37 ------- null}
- -t 0.396 -s 4 -d 0 -p cbr -e 1000 -c 1 -i 37 -a 1 -x {4.1 1.0 37 ------- null}
h -t 0.396 -s 4 -d 0 -p cbr -e 1000 -c 1 -i 37 -a 1 -x {4.1 1.0 -1 ------- null}
r -t 0.398 -s 0 -d 1 -p cbr -e 1000 -c 1 -i 32 -a 1 -x {4.1 1.0 32 ------- null}
r -t 0.404 -s 4 -d 0 -p cbr -e 1000 -c 1 -i 35 -a 1 -x {4.1 1.0 35 ------- null}
+ -t 0.404 -s 0 -d 1 -p cbr -e 1000 -c 1 -i 35 -a 1 -x {4.1 1.0 35 ------- null}
- -t 0.404 -s 0 -d 1 -p cbr -e 1000 -c 1 -i 35 -a 1 -x {4.1 1.0 35 ------- null}
h -t 0.404 -s 0 -d 1 -p cbr -e 1000 -c 1 -i 35 -a 1 -x {4.1 1.0 -1 ------- null}
+ -t 0.404 -s 4 -d 0 -p cbr -e 1000 -c 1 -i 38 -a 1 -x {4.1 1.0 38 ------- null}
- -t 0.404 -s 4 -d 0 -p cbr -e 1000 -c 1 -i 38 -a 1 -x {4.1 1.0 38 ------- null}
h -t 0.404 -s 4 -d 0 -p cbr -e 1000 -c 1 -i 38 -a 1 -x {4.1 1.0 -1 ------- null}
r -t 0.406 -s 0 -d 1 -p cbr -e 1000 -c 1 -i 33 -a 1 -x {4.1 1.0 33 ------- null}
r -t 0.412 -s 4 -d 0 -p cbr -e 1000 -c 1 -i 36 -a 1 -x {4.1 1.0 36 ------- null}
+ -t 0.412 -s 0 -d 1 -p cbr -e 1000 -c 1 -i 36 -a 1 -x {4.1 1.0 36 ------- null}
- -t 0.412 -s 0 -d 1 -p cbr -e 1000 -c 1 -i 36 -a 1 -x {4.1 1.0 36 ------- null}
h -t 0.412 -s 0 -d 1 -p cbr -e 1000 -c 1 -i 36 -a 1 -x {4.1 1.0 -1 ------- null}
+ -t 0.412 -s 4 -d 0 -p cbr -e 1000 -c 1 -i 39 -a 1 -x {4.1 1.0 39 ------- null}
- -t 0.412 -s 4 -d 0 -p cbr -e 1000 -c 1 -i 39 -a 1 -x {4.1 1.0 39 ------- null}
h -t 0.412 -s 4 -d 0 -p cbr -e 1000 -c 1 -i 39 -a 1 -x {4.1 1.0 -1 ------- null}
r -t 0.414 -s 0 -d 1 -p cbr -e 1000 -c 1 -i 34 -a 1 -x {4.1 1.0 34 ------- null}
r -t 0.42 -s 4 -d 0 -p cbr -e 1000 -c 1 -i 37 -a 1 -x {4.1 1.0 37 ------- null}
+ -t 0.42 -s 0 -d 1 -p cbr -e 1000 -c 1 -i 37 -a 1 -x {4.1 1.0 37 ------- null}
- -t 0.42 -s 0 -d 1 -p cbr -e 1000 -c 1 -i 37 -a 1 -x {4.1 1.0 37 ------- null}
h -t 0.42 -s 0 -d 1 -p cbr -e 1000 -c 1 -i 37 -a 1 -x {4.1 1.0 -1 ------- null}
+ -t 0.42 -s 4 -d 0 -p cbr -e 1000 -c 1 -i 40 -a 1 -x {4.1 1.0 40 ------- null}
- -t 0.42 -s 4 -d 0 -p cbr -e 1000 -c 1 -i 40 -a 1 -x {4.1 1.0 40 ------- null}
h -t 0.42 -s 4 -d 0 -p cbr -e 1000 -c 1 -i 40 -a 1 -x {4.1 1.0 -1 ------- null}
r -t 0.422 -s 0 -d 1 -p cbr -e 1000 -c 1 -i 35 -a 1 -x {4.1 1.0 35 ------- null}
r -t 0.428 -s 4 -d 0 -p cbr -e 1000 -c 1 -i 38 -a 1 -x {4.1 1.0 38 ------- null}
+ -t 0.428 -s 0 -d 1 -p cbr -e 1000 -c 1 -i 38 -a 1 -x {4.1 1.0 38 ------- null}
- -t 0.428 -s 0 -d 1 -p cbr -e 1000 -c 1 -i 38 -a 1 -x {4.1 1.0 38 ------- null}
h -t 0.428 -s 0 -d 1 -p cbr -e 1000 -c 1 -i 38 -a 1 -x {4.1 1.0 -1 ------- null}
+ -t 0.428 -s 4 -d 0 -p cbr -e 1000 -c 1 -i 41 -a 1 -x {4.1 1.0 41 ------- null}
- -t 0.428 -s 4 -d 0 -p cbr -e 1000 -c 1 -i 41 -a 1 -x {4.1 1.0 41 ------- null}
h -t 0.428 -s 4 -d 0 -p cbr -e 1000 -c 1 -i 41 -a 1 -x {4.1 1.0 -1 ------- null}
r -t 0.43 -s 0 -d 1 -p cbr -e 1000 -c 1 -i 36 -a 1 -x {4.1 1.0 36 ------- null}
r -t 0.436 -s 4 -d 0 -p cbr -e 1000 -c 1 -i 39 -a 1 -x {4.1 1.0 39 ------- null}
+ -t 0.436 -s 0 -d 1 -p cbr -e 1000 -c 1 -i 39 -a 1 -x {4.1 1.0 39 ------- null}
- -t 0.436 -s 0 -d 1 -p cbr -e 1000 -c 1 -i 39 -a 1 -x {4.1 1.0 39 ------- null}
h -t 0.436 -s 0 -d 1 -p cbr -e 1000 -c 1 -i 39 -a 1 -x {4.1 1.0 -1 ------- null}
+ -t 0.436 -s 4 -d 0 -p cbr -e 1000 -c 1 -i 42 -a 1 -x {4.1 1.0 42 ------- null}
- -t 0.436 -s 4 -d 0 -p cbr -e 1000 -c 1 -i 42 -a 1 -x {4.1 1.0 42 ------- null}
h -t 0.436 -s 4 -d 0 -p cbr -e 1000 -c 1 -i 42 -a 1 -x {4.1 1.0 -1 ------- null}
r -t 0.438 -s 0 -d 1 -p cbr -e 1000 -c 1 -i 37 -a 1 -x {4.1 1.0 37 ------- null}
r -t 0.444 -s 4 -d 0 -p cbr -e 1000 -c 1 -i 40 -a 1 -x {4.1 1.0 40 ------- null}
+ -t 0.444 -s 0 -d 1 -p cbr -e 1000 -c 1 -i 40 -a 1 -x {4.1 1.0 40 ------- null}
- -t 0.444 -s 0 -d 1 -p cbr -e 1000 -c 1 -i 40 -a 1 -x {4.1 1.0 40 ------- null}
h -t 0.444 -s 0 -d 1 -p cbr -e 1000 -c 1 -i 40 -a 1 -x {4.1 1.0 -1 ------- null}
+ -t 0.444 -s 4 -d 0 -p cbr -e 1000 -c 1 -i 43 -a 1 -x {4.1 1.0 43 ------- null}
- -t 0.444 -s 4 -d 0 -p cbr -e 1000 -c 1 -i 43 -a 1 -x {4.1 1.0 43 ------- null}
h -t 0.444 -s 4 -d 0 -p cbr -e 1000 -c 1 -i 43 -a 1 -x {4.1 1.0 -1 ------- null}
r -t 0.446 -s 0 -d 1 -p cbr -e 1000 -c 1 -i 38 -a 1 -x {4.1 1.0 38 ------- null}
r -t 0.452 -s 4 -d 0 -p cbr -e 1000 -c 1 -i 41 -a 1 -x {4.1 1.0 41 ------- null}
+ -t 0.452 -s 0 -d 1 -p cbr -e 1000 -c 1 -i 41 -a 1 -x {4.1 1.0 41 ------- null}
- -t 0.452 -s 0 -d 1 -p cbr -e 1000 -c 1 -i 41 -a 1 -x {4.1 1.0 41 ------- null}
h -t 0.452 -s 0 -d 1 -p cbr -e 1000 -c 1 -i 41 -a 1 -x {4.1 1.0 -1 ------- null}
+ -t 0.452 -s 4 -d 0 -p cbr -e 1000 -c 1 -i 44 -a 1 -x {4.1 1.0 44 ------- null}
- -t 0.452 -s 4 -d 0 -p cbr -e 1000 -c 1 -i 44 -a 1 -x {4.1 1.0 44 ------- null}
h -t 0.452 -s 4 -d 0 -p cbr -e 1000 -c 1 -i 44 -a 1 -x {4.1 1.0 -1 ------- null}
r -t 0.454 -s 0 -d 1 -p cbr -e 1000 -c 1 -i 39 -a 1 -x {4.1 1.0 39 ------- null}
r -t 0.46 -s 4 -d 0 -p cbr -e 1000 -c 1 -i 42 -a 1 -x {4.1 1.0 42 ------- null}
+ -t 0.46 -s 0 -d 1 -p cbr -e 1000 -c 1 -i 42 -a 1 -x {4.1 1.0 42 ------- null}
- -t 0.46 -s 0 -d 1 -p cbr -e 1000 -c 1 -i 42 -a 1 -x {4.1 1.0 42 ------- null}
h -t 0.46 -s 0 -d 1 -p cbr -e 1000 -c 1 -i 42 -a 1 -x {4.1 1.0 -1 ------- null}
+ -t 0.46 -s 4 -d 0 -p cbr -e 1000 -c 1 -i 45 -a 1 -x {4.1 1.0 45 ------- null}
- -t 0.46 -s 4 -d 0 -p cbr -e 1000 -c 1 -i 45 -a 1 -x {4.1 1.0 45 ------- null}
h -t 0.46 -s 4 -d 0 -p cbr -e 1000 -c 1 -i 45 -a 1 -x {4.1 1.0 -1 ------- null}
r -t 0.462 -s 0 -d 1 -p cbr -e 1000 -c 1 -i 40 -a 1 -x {4.1 1.0 40 ------- null}
r -t 0.468 -s 4 -d 0 -p cbr -e 1000 -c 1 -i 43 -a 1 -x {4.1 1.0 43 ------- null}
+ -t 0.468 -s 0 -d 1 -p cbr -e 1000 -c 1 -i 43 -a 1 -x {4.1 1.0 43 ------- null}
- -t 0.468 -s 0 -d 1 -p cbr -e 1000 -c 1 -i 43 -a 1 -x {4.1 1.0 43 ------- null}
h -t 0.468 -s 0 -d 1 -p cbr -e 1000 -c 1 -i 43 -a 1 -x {4.1 1.0 -1 ------- null}
+ -t 0.468 -s 4 -d 0 -p cbr -e 1000 -c 1 -i 46 -a 1 -x {4.1 1.0 46 ------- null}
- -t 0.468 -s 4 -d 0 -p cbr -e 1000 -c 1 -i 46 -a 1 -x {4.1 1.0 46 ------- null}
h -t 0.468 -s 4 -d 0 -p cbr -e 1000 -c 1 -i 46 -a 1 -x {4.1 1.0 -1 ------- null}
r -t 0.47 -s 0 -d 1 -p cbr -e 1000 -c 1 -i 41 -a 1 -x {4.1 1.0 41 ------- null}
r -t 0.476 -s 4 -d 0 -p cbr -e 1000 -c 1 -i 44 -a 1 -x {4.1 1.0 44 ------- null}