+ 0.05 0 1 cbr 210 ------- 0 0.1 1073741824.0 0 0
- 0.05 0 1 cbr 210 ------- 0 0.1 1073741824.0 0 0
+ 0.05 2 1 cbr 210 ------- 0 2.1 1073741825.0 0 1
- 0.05 2 1 cbr 210 ------- 0 2.1 1073741825.0 0 1
+ 0.05375 0 1 cbr 210 ------- 0 0.1 1073741824.0 1 2
- 0.05375 0 1 cbr 210 ------- 0 0.1 1073741824.0 1 2
+ 0.05375 2 1 cbr 210 ------- 0 2.1 1073741825.0 1 3
- 0.05375 2 1 cbr 210 ------- 0 2.1 1073741825.0 1 3
r 0.05668 0 1 cbr 210 ------- 0 0.1 1073741824.0 0 0
+ 0.05668 1 4 cbr 210 ------- 0 0.1 1073741824.0 0 0
- 0.05668 1 4 cbr 210 ------- 0 0.1 1073741824.0 0 0
+ 0.05668 1 2 cbr 210 ------- 0 0.1 1073741824.0 0 0
- 0.05668 1 2 cbr 210 ------- 0 0.1 1073741824.0 0 0
+ 0.05668 1 3 cbr 210 ------- 0 0.1 1073741824.0 0 0
- 0.05668 1 3 cbr 210 ------- 0 0.1 1073741824.0 0 0
r 0.05668 2 1 cbr 210 ------- 0 2.1 1073741825.0 0 1
+ 0.05668 1 4 cbr 210 ------- 0 2.1 1073741825.0 0 1
+ 0.05668 1 0 cbr 210 ------- 0 2.1 1073741825.0 0 1
- 0.05668 1 0 cbr 210 ------- 0 2.1 1073741825.0 0 1
+ 0.05668 1 3 cbr 210 ------- 0 2.1 1073741825.0 0 1
+ 0.0575 0 1 cbr 210 ------- 0 0.1 1073741824.0 2 4
- 0.0575 0 1 cbr 210 ------- 0 0.1 1073741824.0 2 4
+ 0.0575 2 1 cbr 210 ------- 0 2.1 1073741825.0 2 5
- 0.0575 2 1 cbr 210 ------- 0 2.1 1073741825.0 2 5
- 0.05836 1 4 cbr 210 ------- 0 2.1 1073741825.0 0 1
- 0.05836 1 3 cbr 210 ------- 0 2.1 1073741825.0 0 1
r 0.06043 0 1 cbr 210 ------- 0 0.1 1073741824.0 1 2
+ 0.06043 1 4 cbr 210 ------- 0 0.1 1073741824.0 1 2
- 0.06043 1 4 cbr 210 ------- 0 0.1 1073741824.0 1 2
+ 0.06043 1 2 cbr 210 ------- 0 0.1 1073741824.0 1 2
- 0.06043 1 2 cbr 210 ------- 0 0.1 1073741824.0 1 2
+ 0.06043 1 3 cbr 210 ------- 0 0.1 1073741824.0 1 2
- 0.06043 1 3 cbr 210 ------- 0 0.1 1073741824.0 1 2
r 0.06043 2 1 cbr 210 ------- 0 2.1 1073741825.0 1 3
+ 0.06043 1 4 cbr 210 ------- 0 2.1 1073741825.0 1 3
+ 0.06043 1 0 cbr 210 ------- 0 2.1 1073741825.0 1 3
- 0.06043 1 0 cbr 210 ------- 0 2.1 1073741825.0 1 3
+ 0.06043 1 3 cbr 210 ------- 0 2.1 1073741825.0 1 3
+ 0.06125 0 1 cbr 210 ------- 0 0.1 1073741824.0 3 6
- 0.06125 0 1 cbr 210 ------- 0 0.1 1073741824.0 3 6
+ 0.06125 2 1 cbr 210 ------- 0 2.1 1073741825.0 3 7
- 0.06125 2 1 cbr 210 ------- 0 2.1 1073741825.0 3 7
- 0.06211 1 4 cbr 210 ------- 0 2.1 1073741825.0 1 3
- 0.06211 1 3 cbr 210 ------- 0 2.1 1073741825.0 1 3
r 0.06336 1 4 cbr 210 ------- 0 0.1 1073741824.0 0 0
+ 0.06336 4 1 prune 80 ------- 30 4.0 1.0 -1 8
- 0.06336 4 1 prune 80 ------- 30 4.0 1.0 -1 8
r 0.06336 1 2 cbr 210 ------- 0 0.1 1073741824.0 0 0
+ 0.06336 2 1 prune 80 ------- 30 2.0 1.0 -1 9
- 0.06336 2 1 prune 80 ------- 30 2.0 1.0 -1 9
r 0.06336 1 3 cbr 210 ------- 0 0.1 1073741824.0 0 0
+ 0.06336 3 1 prune 80 ------- 30 3.0 1.0 -1 10
- 0.06336 3 1 prune 80 ------- 30 3.0 1.0 -1 10
r 0.06336 1 0 cbr 210 ------- 0 2.1 1073741825.0 0 1
+ 0.06336 0 1 prune 80 ------- 30 0.0 1.0 -1 11
- 0.06336 0 1 prune 80 ------- 30 0.0 1.0 -1 11
r 0.06418 0 1 cbr 210 ------- 0 0.1 1073741824.0 2 4
+ 0.06418 1 4 cbr 210 ------- 0 0.1 1073741824.0 2 4
- 0.06418 1 4 cbr 210 ------- 0 0.1 1073741824.0 2 4
+ 0.06418 1 2 cbr 210 ------- 0 0.1 1073741824.0 2 4
- 0.06418 1 2 cbr 210 ------- 0 0.1 1073741824.0 2 4
+ 0.06418 1 3 cbr 210 ------- 0 0.1 1073741824.0 2 4
- 0.06418 1 3 cbr 210 ------- 0 0.1 1073741824.0 2 4
r 0.06418 2 1 cbr 210 ------- 0 2.1 1073741825.0 2 5
+ 0.06418 1 4 cbr 210 ------- 0 2.1 1073741825.0 2 5
+ 0.06418 1 0 cbr 210 ------- 0 2.1 1073741825.0 2 5
- 0.06418 1 0 cbr 210 ------- 0 2.1 1073741825.0 2 5
+ 0.06418 1 3 cbr 210 ------- 0 2.1 1073741825.0 2 5
+ 0.065 0 1 cbr 210 ------- 0 0.1 1073741824.0 4 12
- 0.065 0 1 cbr 210 ------- 0 0.1 1073741824.0 4 12
+ 0.065 2 1 cbr 210 ------- 0 2.1 1073741825.0 4 13
- 0.065 2 1 cbr 210 ------- 0 2.1 1073741825.0 4 13
r 0.06504 1 4 cbr 210 ------- 0 2.1 1073741825.0 0 1
+ 0.06504 4 1 prune 80 ------- 30 4.0 1.0 -1 14
- 0.06504 4 1 prune 80 ------- 30 4.0 1.0 -1 14
r 0.06504 1 3 cbr 210 ------- 0 2.1 1073741825.0 0 1
+ 0.06504 3 1 prune 80 ------- 30 3.0 1.0 -1 15
- 0.06504 3 1 prune 80 ------- 30 3.0 1.0 -1 15
- 0.06586 1 4 cbr 210 ------- 0 2.1 1073741825.0 2 5
- 0.06586 1 3 cbr 210 ------- 0 2.1 1073741825.0 2 5
r 0.06711 1 4 cbr 210 ------- 0 0.1 1073741824.0 1 2
+ 0.06711 4 1 prune 80 ------- 30 4.0 1.0 -1 16
- 0.06711 4 1 prune 80 ------- 30 4.0 1.0 -1 16
r 0.06711 1 2 cbr 210 ------- 0 0.1 1073741824.0 1 2
+ 0.06711 2 1 prune 80 ------- 30 2.0 1.0 -1 17
- 0.06711 2 1 prune 80 ------- 30 2.0 1.0 -1 17
r 0.06711 1 3 cbr 210 ------- 0 0.1 1073741824.0 1 2
+ 0.06711 3 1 prune 80 ------- 30 3.0 1.0 -1 18
- 0.06711 3 1 prune 80 ------- 30 3.0 1.0 -1 18
r 0.06711 1 0 cbr 210 ------- 0 2.1 1073741825.0 1 3
+ 0.06711 0 1 prune 80 ------- 30 0.0 1.0 -1 19
- 0.06711 0 1 prune 80 ------- 30 0.0 1.0 -1 19
r 0.06793 0 1 cbr 210 ------- 0 0.1 1073741824.0 3 6
+ 0.06793 1 4 cbr 210 ------- 0 0.1 1073741824.0 3 6
- 0.06793 1 4 cbr 210 ------- 0 0.1 1073741824.0 3 6
+ 0.06793 1 2 cbr 210 ------- 0 0.1 1073741824.0 3 6
- 0.06793 1 2 cbr 210 ------- 0 0.1 1073741824.0 3 6
+ 0.06793 1 3 cbr 210 ------- 0 0.1 1073741824.0 3 6
- 0.06793 1 3 cbr 210 ------- 0 0.1 1073741824.0 3 6
r 0.06793 2 1 cbr 210 ------- 0 2.1 1073741825.0 3 7
+ 0.06793 1 4 cbr 210 ------- 0 2.1 1073741825.0 3 7
+ 0.06793 1 0 cbr 210 ------- 0 2.1 1073741825.0 3 7
- 0.06793 1 0 cbr 210 ------- 0 2.1 1073741825.0 3 7
+ 0.06793 1 3 cbr 210 ------- 0 2.1 1073741825.0 3 7
+ 0.06875 0 1 cbr 210 ------- 0 0.1 1073741824.0 5 20
- 0.06875 0 1 cbr 210 ------- 0 0.1 1073741824.0 5 20
+ 0.06875 2 1 cbr 210 ------- 0 2.1 1073741825.0 5 21
- 0.06875 2 1 cbr 210 ------- 0 2.1 1073741825.0 5 21
r 0.06879 1 4 cbr 210 ------- 0 2.1 1073741825.0 1 3
+ 0.06879 4 1 prune 80 ------- 30 4.0 1.0 -1 22
- 0.06879 4 1 prune 80 ------- 30 4.0 1.0 -1 22
r 0.06879 1 3 cbr 210 ------- 0 2.1 1073741825.0 1 3
+ 0.06879 3 1 prune 80 ------- 30 3.0 1.0 -1 23
- 0.06879 3 1 prune 80 ------- 30 3.0 1.0 -1 23
r 0.069 4 1 prune 80 ------- 30 4.0 1.0 -1 8
r 0.069 2 1 prune 80 ------- 30 2.0 1.0 -1 9
r 0.069 3 1 prune 80 ------- 30 3.0 1.0 -1 10
+ 0.069 1 0 prune 80 ------- 30 1.0 0.0 -1 24
r 0.069 0 1 prune 80 ------- 30 0.0 1.0 -1 11
- 0.06961 1 4 cbr 210 ------- 0 2.1 1073741825.0 3 7
- 0.06961 1 3 cbr 210 ------- 0 2.1 1073741825.0 3 7
- 0.06961 1 0 prune 80 ------- 30 1.0 0.0 -1 24
r 0.07068 4 1 prune 80 ------- 30 4.0 1.0 -1 14
r 0.07068 3 1 prune 80 ------- 30 3.0 1.0 -1 15
+ 0.07068 1 2 prune 80 ------- 30 1.0 2.0 -1 25
- 0.07068 1 2 prune 80 ------- 30 1.0 2.0 -1 25
r 0.07086 1 4 cbr 210 ------- 0 0.1 1073741824.0 2 4
+ 0.07086 4 1 prune 80 ------- 30 4.0 1.0 -1 26
- 0.07086 4 1 prune 80 ------- 30 4.0 1.0 -1 26
r 0.07086 1 2 cbr 210 ------- 0 0.1 1073741824.0 2 4
+ 0.07086 2 1 prune 80 ------- 30 2.0 1.0 -1 27
- 0.07086 2 1 prune 80 ------- 30 2.0 1.0 -1 27
r 0.07086 1 3 cbr 210 ------- 0 0.1 1073741824.0 2 4
+ 0.07086 3 1 prune 80 ------- 30 3.0 1.0 -1 28
- 0.07086 3 1 prune 80 ------- 30 3.0 1.0 -1 28
r 0.07086 1 0 cbr 210 ------- 0 2.1 1073741825.0 2 5
+ 0.07086 0 1 prune 80 ------- 30 0.0 1.0 -1 29
- 0.07086 0 1 prune 80 ------- 30 0.0 1.0 -1 29
r 0.07168 0 1 cbr 210 ------- 0 0.1 1073741824.0 4 12
+ 0.07168 1 0 prune 80 ------- 30 1.0 0.0 -1 30
- 0.07168 1 0 prune 80 ------- 30 1.0 0.0 -1 30
r 0.07168 2 1 cbr 210 ------- 0 2.1 1073741825.0 4 13
+ 0.07168 1 2 prune 80 ------- 30 1.0 2.0 -1 31
- 0.07168 1 2 prune 80 ------- 30 1.0 2.0 -1 31
+ 0.0725 0 1 cbr 210 ------- 0 0.1 1073741824.0 6 32
- 0.0725 0 1 cbr 210 ------- 0 0.1 1073741824.0 6 32
+ 0.0725 2 1 cbr 210 ------- 0 2.1 1073741825.0 6 33
- 0.0725 2 1 cbr 210 ------- 0 2.1 1073741825.0 6 33
r 0.07254 1 4 cbr 210 ------- 0 2.1 1073741825.0 2 5
+ 0.07254 4 1 prune 80 ------- 30 4.0 1.0 -1 34
- 0.07254 4 1 prune 80 ------- 30 4.0 1.0 -1 34
r 0.07254 1 3 cbr 210 ------- 0 2.1 1073741825.0 2 5
+ 0.07254 3 1 prune 80 ------- 30 3.0 1.0 -1 35
- 0.07254 3 1 prune 80 ------- 30 3.0 1.0 -1 35
r 0.07275 4 1 prune 80 ------- 30 4.0 1.0 -1 16
r 0.07275 2 1 prune 80 ------- 30 2.0 1.0 -1 17
r 0.07275 3 1 prune 80 ------- 30 3.0 1.0 -1 18
r 0.07275 0 1 prune 80 ------- 30 0.0 1.0 -1 19
r 0.07443 4 1 prune 80 ------- 30 4.0 1.0 -1 22
r 0.07443 3 1 prune 80 ------- 30 3.0 1.0 -1 23
r 0.07461 1 4 cbr 210 ------- 0 0.1 1073741824.0 3 6
+ 0.07461 4 1 prune 80 ------- 30 4.0 1.0 -1 36
- 0.07461 4 1 prune 80 ------- 30 4.0 1.0 -1 36
r 0.07461 1 2 cbr 210 ------- 0 0.1 1073741824.0 3 6
+ 0.07461 2 1 prune 80 ------- 30 2.0 1.0 -1 37
- 0.07461 2 1 prune 80 ------- 30 2.0 1.0 -1 37
r 0.07461 1 3 cbr 210 ------- 0 0.1 1073741824.0 3 6
+ 0.07461 3 1 prune 80 ------- 30 3.0 1.0 -1 38
- 0.07461 3 1 prune 80 ------- 30 3.0 1.0 -1 38
r 0.07461 1 0 cbr 210 ------- 0 2.1 1073741825.0 3 7
+ 0.07461 0 1 prune 80 ------- 30 0.0 1.0 -1 39
- 0.07461 0 1 prune 80 ------- 30 0.0 1.0 -1 39
r 0.07525 1 0 prune 80 ------- 30 1.0 0.0 -1 24
r 0.07543 0 1 cbr 210 ------- 0 0.1 1073741824.0 5 20
+ 0.07543 1 0 prune 80 ------- 30 1.0 0.0 -1 40
- 0.07543 1 0 prune 80 ------- 30 1.0 0.0 -1 40
r 0.07543 2 1 cbr 210 ------- 0 2.1 1073741825.0 5 21
+ 0.07543 1 2 prune 80 ------- 30 1.0 2.0 -1 41
- 0.07543 1 2 prune 80 ------- 30 1.0 2.0 -1 41
+ 0.07625 2 1 cbr 210 ------- 0 2.1 1073741825.0 7 43
- 0.07625 2 1 cbr 210 ------- 0 2.1 1073741825.0 7 43
r 0.07629 1 4 cbr 210 ------- 0 2.1 1073741825.0 3 7
+ 0.07629 4 1 prune 80 ------- 30 4.0 1.0 -1 44
- 0.07629 4 1 prune 80 ------- 30 4.0 1.0 -1 44
r 0.07629 1 3 cbr 210 ------- 0 2.1 1073741825.0 3 7
+ 0.07629 3 1 prune 80 ------- 30 3.0 1.0 -1 45
- 0.07629 3 1 prune 80 ------- 30 3.0 1.0 -1 45
r 0.07632 1 2 prune 80 ------- 30 1.0 2.0 -1 25
r 0.0765 4 1 prune 80 ------- 30 4.0 1.0 -1 26
r 0.0765 2 1 prune 80 ------- 30 2.0 1.0 -1 27
r 0.0765 3 1 prune 80 ------- 30 3.0 1.0 -1 28
r 0.0765 0 1 prune 80 ------- 30 0.0 1.0 -1 29
r 0.07732 1 0 prune 80 ------- 30 1.0 0.0 -1 30
r 0.07732 1 2 prune 80 ------- 30 1.0 2.0 -1 31
r 0.07818 4 1 prune 80 ------- 30 4.0 1.0 -1 34
r 0.07818 3 1 prune 80 ------- 30 3.0 1.0 -1 35
r 0.07918 0 1 cbr 210 ------- 0 0.1 1073741824.0 6 32
+ 0.07918 1 0 prune 80 ------- 30 1.0 0.0 -1 46
- 0.07918 1 0 prune 80 ------- 30 1.0 0.0 -1 46
r 0.07918 2 1 cbr 210 ------- 0 2.1 1073741825.0 6 33
+ 0.07918 1 2 prune 80 ------- 30 1.0 2.0 -1 47
- 0.07918 1 2 prune 80 ------- 30 1.0 2.0 -1 47
r 0.08025 4 1 prune 80 ------- 30 4.0 1.0 -1 36
r 0.08025 2 1 prune 80 ------- 30 2.0 1.0 -1 37
r 0.08025 3 1 prune 80 ------- 30 3.0 1.0 -1 38
r 0.08025 0 1 prune 80 ------- 30 0.0 1.0 -1 39
r 0.08107 1 0 prune 80 ------- 30 1.0 0.0 -1 40
r 0.08107 1 2 prune 80 ------- 30 1.0 2.0 -1 41
r 0.08193 4 1 prune 80 ------- 30 4.0 1.0 -1 44
r 0.08193 3 1 prune 80 ------- 30 3.0 1.0 -1 45
r 0.08293 2 1 cbr 210 ------- 0 2.1 1073741825.0 7 43
+ 0.08293 1 2 prune 80 ------- 30 1.0 2.0 -1 50
- 0.08293 1 2 prune 80 ------- 30 1.0 2.0 -1 50
r 0.08482 1 0 prune 80 ------- 30 1.0 0.0 -1 46
r 0.08482 1 2 prune 80 ------- 30 1.0 2.0 -1 47
r 0.08857 1 2 prune 80 ------- 30 1.0 2.0 -1 50
v 0.1 eval {set sim_annotation {0.10000000000000001 3 join-group 1073741824}}
+ 0.1 3 1 graft 80 ------- 31 3.0 1.0 -1 61
- 0.1 3 1 graft 80 ------- 31 3.0 1.0 -1 61
r 0.10564 3 1 graft 80 ------- 31 3.0 1.0 -1 61
+ 0.10564 1 0 graft 80 ------- 31 1.0 0.0 -1 64
- 0.10564 1 0 graft 80 ------- 31 1.0 0.0 -1 64
r 0.11128 1 0 graft 80 ------- 31 1.0 0.0 -1 64
+ 0.11375 0 1 cbr 210 ------- 0 0.1 1073741824.0 17 69
- 0.11375 0 1 cbr 210 ------- 0 0.1 1073741824.0 17 69
+ 0.1175 0 1 cbr 210 ------- 0 0.1 1073741824.0 18 71
- 0.1175 0 1 cbr 210 ------- 0 0.1 1073741824.0 18 71
v 0.12 eval {set sim_annotation {0.12 4 join-group 1073741824}}
+ 0.12 4 1 graft 80 ------- 31 4.0 1.0 -1 73
- 0.12 4 1 graft 80 ------- 31 4.0 1.0 -1 73
r 0.12043 0 1 cbr 210 ------- 0 0.1 1073741824.0 17 69
+ 0.12043 1 3 cbr 210 ------- 0 0.1 1073741824.0 17 69
- 0.12043 1 3 cbr 210 ------- 0 0.1 1073741824.0 17 69
+ 0.12125 0 1 cbr 210 ------- 0 0.1 1073741824.0 19 74
- 0.12125 0 1 cbr 210 ------- 0 0.1 1073741824.0 19 74
r 0.12418 0 1 cbr 210 ------- 0 0.1 1073741824.0 18 71
+ 0.12418 1 3 cbr 210 ------- 0 0.1 1073741824.0 18 71
- 0.12418 1 3 cbr 210 ------- 0 0.1 1073741824.0 18 71
+ 0.125 0 1 cbr 210 ------- 0 0.1 1073741824.0 20 76
- 0.125 0 1 cbr 210 ------- 0 0.1 1073741824.0 20 76
r 0.12564 4 1 graft 80 ------- 31 4.0 1.0 -1 73
r 0.12711 1 3 cbr 210 ------- 0 0.1 1073741824.0 17 69
r 0.12793 0 1 cbr 210 ------- 0 0.1 1073741824.0 19 74
+ 0.12793 1 3 cbr 210 ------- 0 0.1 1073741824.0 19 74
- 0.12793 1 3 cbr 210 ------- 0 0.1 1073741824.0 19 74
+ 0.12793 1 4 cbr 210 ------- 0 0.1 1073741824.0 19 74
- 0.12793 1 4 cbr 210 ------- 0 0.1 1073741824.0 19 74
+ 0.12875 0 1 cbr 210 ------- 0 0.1 1073741824.0 21 78
- 0.12875 0 1 cbr 210 ------- 0 0.1 1073741824.0 21 78
r 0.13086 1 3 cbr 210 ------- 0 0.1 1073741824.0 18 71
r 0.13168 0 1 cbr 210 ------- 0 0.1 1073741824.0 20 76
+ 0.13168 1 3 cbr 210 ------- 0 0.1 1073741824.0 20 76
- 0.13168 1 3 cbr 210 ------- 0 0.1 1073741824.0 20 76
+ 0.13168 1 4 cbr 210 ------- 0 0.1 1073741824.0 20 76
- 0.13168 1 4 cbr 210 ------- 0 0.1 1073741824.0 20 76
+ 0.1325 0 1 cbr 210 ------- 0 0.1 1073741824.0 22 80
- 0.1325 0 1 cbr 210 ------- 0 0.1 1073741824.0 22 80
r 0.13461 1 3 cbr 210 ------- 0 0.1 1073741824.0 19 74
r 0.13461 1 4 cbr 210 ------- 0 0.1 1073741824.0 19 74
r 0.13543 0 1 cbr 210 ------- 0 0.1 1073741824.0 21 78
+ 0.13543 1 3 cbr 210 ------- 0 0.1 1073741824.0 21 78
- 0.13543 1 3 cbr 210 ------- 0 0.1 1073741824.0 21 78
+ 0.13543 1 4 cbr 210 ------- 0 0.1 1073741824.0 21 78
- 0.13543 1 4 cbr 210 ------- 0 0.1 1073741824.0 21 78
+ 0.13625 0 1 cbr 210 ------- 0 0.1 1073741824.0 23 82
- 0.13625 0 1 cbr 210 ------- 0 0.1 1073741824.0 23 82
r 0.13836 1 3 cbr 210 ------- 0 0.1 1073741824.0 20 76
r 0.13836 1 4 cbr 210 ------- 0 0.1 1073741824.0 20 76
r 0.13918 0 1 cbr 210 ------- 0 0.1 1073741824.0 22 80
+ 0.13918 1 3 cbr 210 ------- 0 0.1 1073741824.0 22 80
- 0.13918 1 3 cbr 210 ------- 0 0.1 1073741824.0 22 80
+ 0.13918 1 4 cbr 210 ------- 0 0.1 1073741824.0 22 80
- 0.13918 1 4 cbr 210 ------- 0 0.1 1073741824.0 22 80
+ 0.14 0 1 cbr 210 ------- 0 0.1 1073741824.0 24 84
- 0.14 0 1 cbr 210 ------- 0 0.1 1073741824.0 24 84
r 0.14211 1 3 cbr 210 ------- 0 0.1 1073741824.0 21 78
r 0.14211 1 4 cbr 210 ------- 0 0.1 1073741824.0 21 78
r 0.14293 0 1 cbr 210 ------- 0 0.1 1073741824.0 23 82
+ 0.14293 1 3 cbr 210 ------- 0 0.1 1073741824.0 23 82
- 0.14293 1 3 cbr 210 ------- 0 0.1 1073741824.0 23 82
+ 0.14293 1 4 cbr 210 ------- 0 0.1 1073741824.0 23 82
- 0.14293 1 4 cbr 210 ------- 0 0.1 1073741824.0 23 82
+ 0.14375 0 1 cbr 210 ------- 0 0.1 1073741824.0 25 86
- 0.14375 0 1 cbr 210 ------- 0 0.1 1073741824.0 25 86
r 0.14586 1 3 cbr 210 ------- 0 0.1 1073741824.0 22 80
r 0.14586 1 4 cbr 210 ------- 0 0.1 1073741824.0 22 80
r 0.14668 0 1 cbr 210 ------- 0 0.1 1073741824.0 24 84
+ 0.14668 1 3 cbr 210 ------- 0 0.1 1073741824.0 24 84
- 0.14668 1 3 cbr 210 ------- 0 0.1 1073741824.0 24 84
+ 0.14668 1 4 cbr 210 ------- 0 0.1 1073741824.0 24 84
- 0.14668 1 4 cbr 210 ------- 0 0.1 1073741824.0 24 84
+ 0.1475 0 1 cbr 210 ------- 0 0.1 1073741824.0 26 88
- 0.1475 0 1 cbr 210 ------- 0 0.1 1073741824.0 26 88
r 0.14961 1 3 cbr 210 ------- 0 0.1 1073741824.0 23 82
r 0.14961 1 4 cbr 210 ------- 0 0.1 1073741824.0 23 82
r 0.15043 0 1 cbr 210 ------- 0 0.1 1073741824.0 25 86
+ 0.15043 1 3 cbr 210 ------- 0 0.1 1073741824.0 25 86
- 0.15043 1 3 cbr 210 ------- 0 0.1 1073741824.0 25 86
+ 0.15043 1 4 cbr 210 ------- 0 0.1 1073741824.0 25 86
- 0.15043 1 4 cbr 210 ------- 0 0.1 1073741824.0 25 86
+ 0.15125 0 1 cbr 210 ------- 0 0.1 1073741824.0 27 90
- 0.15125 0 1 cbr 210 ------- 0 0.1 1073741824.0 27 90
r 0.15336 1 3 cbr 210 ------- 0 0.1 1073741824.0 24 84
r 0.15336 1 4 cbr 210 ------- 0 0.1 1073741824.0 24 84
r 0.15418 0 1 cbr 210 ------- 0 0.1 1073741824.0 26 88
+ 0.15418 1 3 cbr 210 ------- 0 0.1 1073741824.0 26 88
- 0.15418 1 3 cbr 210 ------- 0 0.1 1073741824.0 26 88
+ 0.15418 1 4 cbr 210 ------- 0 0.1 1073741824.0 26 88
- 0.15418 1 4 cbr 210 ------- 0 0.1 1073741824.0 26 88
+ 0.155 0 1 cbr 210 ------- 0 0.1 1073741824.0 28 92
- 0.155 0 1 cbr 210 ------- 0 0.1 1073741824.0 28 92
r 0.15711 1 3 cbr 210 ------- 0 0.1 1073741824.0 25 86
r 0.15711 1 4 cbr 210 ------- 0 0.1 1073741824.0 25 86
r 0.15793 0 1 cbr 210 ------- 0 0.1 1073741824.0 27 90
+ 0.15793 1 3 cbr 210 ------- 0 0.1 1073741824.0 27 90
- 0.15793 1 3 cbr 210 ------- 0 0.1 1073741824.0 27 90
+ 0.15793 1 4 cbr 210 ------- 0 0.1 1073741824.0 27 90
- 0.15793 1 4 cbr 210 ------- 0 0.1 1073741824.0 27 90
+ 0.15875 0 1 cbr 210 ------- 0 0.1 1073741824.0 29 94
- 0.15875 0 1 cbr 210 ------- 0 0.1 1073741824.0 29 94
r 0.16086 1 3 cbr 210 ------- 0 0.1 1073741824.0 26 88
r 0.16086 1 4 cbr 210 ------- 0 0.1 1073741824.0 26 88
r 0.16168 0 1 cbr 210 ------- 0 0.1 1073741824.0 28 92
+ 0.16168 1 3 cbr 210 ------- 0 0.1 1073741824.0 28 92
- 0.16168 1 3 cbr 210 ------- 0 0.1 1073741824.0 28 92
+ 0.16168 1 4 cbr 210 ------- 0 0.1 1073741824.0 28 92
- 0.16168 1 4 cbr 210 ------- 0 0.1 1073741824.0 28 92
+ 0.1625 0 1 cbr 210 ------- 0 0.1 1073741824.0 30 96
- 0.1625 0 1 cbr 210 ------- 0 0.1 1073741824.0 30 96
r 0.16461 1 3 cbr 210 ------- 0 0.1 1073741824.0 27 90
r 0.16461 1 4 cbr 210 ------- 0 0.1 1073741824.0 27 90
r 0.16543 0 1 cbr 210 ------- 0 0.1 1073741824.0 29 94
+ 0.16543 1 3 cbr 210 ------- 0 0.1 1073741824.0 29 94
- 0.16543 1 3 cbr 210 ------- 0 0.1 1073741824.0 29 94
+ 0.16543 1 4 cbr 210 ------- 0 0.1 1073741824.0 29 94
- 0.16543 1 4 cbr 210 ------- 0 0.1 1073741824.0 29 94
+ 0.16625 0 1 cbr 210 ------- 0 0.1 1073741824.0 31 98
- 0.16625 0 1 cbr 210 ------- 0 0.1 1073741824.0 31 98
r 0.16836 1 3 cbr 210 ------- 0 0.1 1073741824.0 28 92
r 0.16836 1 4 cbr 210 ------- 0 0.1 1073741824.0 28 92
r 0.16918 0 1 cbr 210 ------- 0 0.1 1073741824.0 30 96
+ 0.16918 1 3 cbr 210 ------- 0 0.1 1073741824.0 30 96
- 0.16918 1 3 cbr 210 ------- 0 0.1 1073741824.0 30 96
+ 0.16918 1 4 cbr 210 ------- 0 0.1 1073741824.0 30 96
- 0.16918 1 4 cbr 210 ------- 0 0.1 1073741824.0 30 96
+ 0.17 0 1 cbr 210 ------- 0 0.1 1073741824.0 32 100
- 0.17 0 1 cbr 210 ------- 0 0.1 1073741824.0 32 100
r 0.17211 1 3 cbr 210 ------- 0 0.1 1073741824.0 29 94
r 0.17211 1 4 cbr 210 ------- 0 0.1 1073741824.0 29 94
r 0.17293 0 1 cbr 210 ------- 0 0.1 1073741824.0 31 98
+ 0.17293 1 3 cbr 210 ------- 0 0.1 1073741824.0 31 98
- 0.17293 1 3 cbr 210 ------- 0 0.1 1073741824.0 31 98
+ 0.17293 1 4 cbr 210 ------- 0 0.1 1073741824.0 31 98
- 0.17293 1 4 cbr 210 ------- 0 0.1 1073741824.0 31 98
+ 0.17375 0 1 cbr 210 ------- 0 0.1 1073741824.0 33 102
- 0.17375 0 1 cbr 210 ------- 0 0.1 1073741824.0 33 102
r 0.17586 1 3 cbr 210 ------- 0 0.1 1073741824.0 30 96
r 0.17586 1 4 cbr 210 ------- 0 0.1 1073741824.0 30 96
r 0.17668 0 1 cbr 210 ------- 0 0.1 1073741824.0 32 100
+ 0.17668 1 3 cbr 210 ------- 0 0.1 1073741824.0 32 100
- 0.17668 1 3 cbr 210 ------- 0 0.1 1073741824.0 32 100
+ 0.17668 1 4 cbr 210 ------- 0 0.1 1073741824.0 32 100
- 0.17668 1 4 cbr 210 ------- 0 0.1 1073741824.0 32 100
+ 0.1775 0 1 cbr 210 ------- 0 0.1 1073741824.0 34 104
- 0.1775 0 1 cbr 210 ------- 0 0.1 1073741824.0 34 104
r 0.17961 1 3 cbr 210 ------- 0 0.1 1073741824.0 31 98
r 0.17961 1 4 cbr 210 ------- 0 0.1 1073741824.0 31 98
r 0.18043 0 1 cbr 210 ------- 0 0.1 1073741824.0 33 102
+ 0.18043 1 3 cbr 210 ------- 0 0.1 1073741824.0 33 102
- 0.18043 1 3 cbr 210 ------- 0 0.1 1073741824.0 33 102
+ 0.18043 1 4 cbr 210 ------- 0 0.1 1073741824.0 33 102
- 0.18043 1 4 cbr 210 ------- 0 0.1 1073741824.0 33 102
+ 0.18125 0 1 cbr 210 ------- 0 0.1 1073741824.0 35 106
- 0.18125 0 1 cbr 210 ------- 0 0.1 1073741824.0 35 106
r 0.18336 1 3 cbr 210 ------- 0 0.1 1073741824.0 32 100
r 0.18336 1 4 cbr 210 ------- 0 0.1 1073741824.0 32 100
r 0.18418 0 1 cbr 210 ------- 0 0.1 1073741824.0 34 104
+ 0.18418 1 3 cbr 210 ------- 0 0.1 1073741824.0 34 104
- 0.18418 1 3 cbr 210 ------- 0 0.1 1073741824.0 34 104
+ 0.18418 1 4 cbr 210 ------- 0 0.1 1073741824.0 34 104
- 0.18418 1 4 cbr 210 ------- 0 0.1 1073741824.0 34 104
+ 0.185 0 1 cbr 210 ------- 0 0.1 1073741824.0 36 108
- 0.185 0 1 cbr 210 ------- 0 0.1 1073741824.0 36 108
r 0.18711 1 3 cbr 210 ------- 0 0.1 1073741824.0 33 102
r 0.18711 1 4 cbr 210 ------- 0 0.1 1073741824.0 33 102
r 0.18793 0 1 cbr 210 ------- 0 0.1 1073741824.0 35 106
+ 0.18793 1 3 cbr 210 ------- 0 0.1 1073741824.0 35 106
- 0.18793 1 3 cbr 210 ------- 0 0.1 1073741824.0 35 106
+ 0.18793 1 4 cbr 210 ------- 0 0.1 1073741824.0 35 106
- 0.18793 1 4 cbr 210 ------- 0 0.1 1073741824.0 35 106
+ 0.18875 0 1 cbr 210 ------- 0 0.1 1073741824.0 37 110
- 0.18875 0 1 cbr 210 ------- 0 0.1 1073741824.0 37 110
r 0.19086 1 3 cbr 210 ------- 0 0.1 1073741824.0 34 104
r 0.19086 1 4 cbr 210 ------- 0 0.1 1073741824.0 34 104
r 0.19168 0 1 cbr 210 ------- 0 0.1 1073741824.0 36 108
+ 0.19168 1 3 cbr 210 ------- 0 0.1 1073741824.0 36 108
- 0.19168 1 3 cbr 210 ------- 0 0.1 1073741824.0 36 108
+ 0.19168 1 4 cbr 210 ------- 0 0.1 1073741824.0 36 108
- 0.19168 1 4 cbr 210 ------- 0 0.1 1073741824.0 36 108
+ 0.1925 0 1 cbr 210 ------- 0 0.1 1073741824.0 38 112
- 0.1925 0 1 cbr 210 ------- 0 0.1 1073741824.0 38 112
r 0.19461 1 3 cbr 210 ------- 0 0.1 1073741824.0 35 106
r 0.19461 1 4 cbr 210 ------- 0 0.1 1073741824.0 35 106
r 0.19543 0 1 cbr 210 ------- 0 0.1 1073741824.0 37 110
+ 0.19543 1 3 cbr 210 ------- 0 0.1 1073741824.0 37 110
- 0.19543 1 3 cbr 210 ------- 0 0.1 1073741824.0 37 110
+ 0.19543 1 4 cbr 210 ------- 0 0.1 1073741824.0 37 110
- 0.19543 1 4 cbr 210 ------- 0 0.1 1073741824.0 37 110
+ 0.19625 0 1 cbr 210 ------- 0 0.1 1073741824.0 39 114
- 0.19625 0 1 cbr 210 ------- 0 0.1 1073741824.0 39 114
r 0.19836 1 3 cbr 210 ------- 0 0.1 1073741824.0 36 108
r 0.19836 1 4 cbr 210 ------- 0 0.1 1073741824.0 36 108
r 0.19918 0 1 cbr 210 ------- 0 0.1 1073741824.0 38 112
+ 0.19918 1 3 cbr 210 ------- 0 0.1 1073741824.0 38 112
- 0.19918 1 3 cbr 210 ------- 0 0.1 1073741824.0 38 112
+ 0.19918 1 4 cbr 210 ------- 0 0.1 1073741824.0 38 112
- 0.19918 1 4 cbr 210 ------- 0 0.1 1073741824.0 38 112
+ 0.2 0 1 cbr 210 ------- 0 0.1 1073741824.0 40 116
- 0.2 0 1 cbr 210 ------- 0 0.1 1073741824.0 40 116
r 0.20211 1 3 cbr 210 ------- 0 0.1 1073741824.0 37 110
r 0.20211 1 4 cbr 210 ------- 0 0.1 1073741824.0 37 110
r 0.20293 0 1 cbr 210 ------- 0 0.1 1073741824.0 39 114
+ 0.20293 1 3 cbr 210 ------- 0 0.1 1073741824.0 39 114
- 0.20293 1 3 cbr 210 ------- 0 0.1 1073741824.0 39 114
+ 0.20293 1 4 cbr 210 ------- 0 0.1 1073741824.0 39 114
- 0.20293 1 4 cbr 210 ------- 0 0.1 1073741824.0 39 114
+ 0.20375 0 1 cbr 210 ------- 0 0.1 1073741824.0 41 118
- 0.20375 0 1 cbr 210 ------- 0 0.1 1073741824.0 41 118
r 0.20586 1 3 cbr 210 ------- 0 0.1 1073741824.0 38 112
r 0.20586 1 4 cbr 210 ------- 0 0.1 1073741824.0 38 112
r 0.20668 0 1 cbr 210 ------- 0 0.1 1073741824.0 40 116
+ 0.20668 1 3 cbr 210 ------- 0 0.1 1073741824.0 40 116
- 0.20668 1 3 cbr 210 ------- 0 0.1 1073741824.0 40 116
+ 0.20668 1 4 cbr 210 ------- 0 0.1 1073741824.0 40 116
- 0.20668 1 4 cbr 210 ------- 0 0.1 1073741824.0 40 116
+ 0.2075 0 1 cbr 210 ------- 0 0.1 1073741824.0 42 120
- 0.2075 0 1 cbr 210 ------- 0 0.1 1073741824.0 42 120
r 0.20961 1 3 cbr 210 ------- 0 0.1 1073741824.0 39 114
r 0.20961 1 4 cbr 210 ------- 0 0.1 1073741824.0 39 114
r 0.21043 0 1 cbr 210 ------- 0 0.1 1073741824.0 41 118
+ 0.21043 1 3 cbr 210 ------- 0 0.1 1073741824.0 41 118
- 0.21043 1 3 cbr 210 ------- 0 0.1 1073741824.0 41 118
+ 0.21043 1 4 cbr 210 ------- 0 0.1 1073741824.0 41 118
- 0.21043 1 4 cbr 210 ------- 0 0.1 1073741824.0 41 118
+ 0.21125 0 1 cbr 210 ------- 0 0.1 1073741824.0 43 122
- 0.21125 0 1 cbr 210 ------- 0 0.1 1073741824.0 43 122
r 0.21336 1 3 cbr 210 ------- 0 0.1 1073741824.0 40 116
r 0.21336 1 4 cbr 210 ------- 0 0.1 1073741824.0 40 116
r 0.21418 0 1 cbr 210 ------- 0 0.1 1073741824.0 42 120
+ 0.21418 1 3 cbr 210 ------- 0 0.1 1073741824.0 42 120
- 0.21418 1 3 cbr 210 ------- 0 0.1 1073741824.0 42 120
+ 0.21418 1 4 cbr 210 ------- 0 0.1 1073741824.0 42 120
- 0.21418 1 4 cbr 210 ------- 0 0.1 1073741824.0 42 120
+ 0.215 0 1 cbr 210 ------- 0 0.1 1073741824.0 44 124
- 0.215 0 1 cbr 210 ------- 0 0.1 1073741824.0 44 124
r 0.21711 1 3 cbr 210 ------- 0 0.1 1073741824.0 41 118
r 0.21711 1 4 cbr 210 ------- 0 0.1 1073741824.0 41 118
r 0.21793 0 1 cbr 210 ------- 0 0.1 1073741824.0 43 122
+ 0.21793 1 3 cbr 210 ------- 0 0.1 1073741824.0 43 122
- 0.21793 1 3 cbr 210 ------- 0 0.1 1073741824.0 43 122
+ 0.21793 1 4 cbr 210 ------- 0 0.1 1073741824.0 43 122
- 0.21793 1 4 cbr 210 ------- 0 0.1 1073741824.0 43 122
+ 0.21875 0 1 cbr 210 ------- 0 0.1 1073741824.0 45 126
- 0.21875 0 1 cbr 210 ------- 0 0.1 1073741824.0 45 126
r 0.22086 1 3 cbr 210 ------- 0 0.1 1073741824.0 42 120
r 0.22086 1 4 cbr 210 ------- 0 0.1 1073741824.0 42 120
r 0.22168 0 1 cbr 210 ------- 0 0.1 1073741824.0 44 124
+ 0.22168 1 3 cbr 210 ------- 0 0.1 1073741824.0 44 124
- 0.22168 1 3 cbr 210 ------- 0 0.1 1073741824.0 44 124
+ 0.22168 1 4 cbr 210 ------- 0 0.1 1073741824.0 44 124
- 0.22168 1 4 cbr 210 ------- 0 0.1 1073741824.0 44 124
+ 0.2225 0 1 cbr 210 ------- 0 0.1 1073741824.0 46 128
- 0.2225 0 1 cbr 210 ------- 0 0.1 1073741824.0 46 128
r 0.22461 1 3 cbr 210 ------- 0 0.1 1073741824.0 43 122
r 0.22461 1 4 cbr 210 ------- 0 0.1 1073741824.0 43 122
r 0.22543 0 1 cbr 210 ------- 0 0.1 1073741824.0 45 126
+ 0.22543 1 3 cbr 210 ------- 0 0.1 1073741824.0 45 126
- 0.22543 1 3 cbr 210 ------- 0 0.1 1073741824.0 45 126
+ 0.22543 1 4 cbr 210 ------- 0 0.1 1073741824.0 45 126
- 0.22543 1 4 cbr 210 ------- 0 0.1 1073741824.0 45 126
+ 0.22625 0 1 cbr 210 ------- 0 0.1 1073741824.0 47 130
- 0.22625 0 1 cbr 210 ------- 0 0.1 1073741824.0 47 130
r 0.22836 1 3 cbr 210 ------- 0 0.1 1073741824.0 44 124
r 0.22836 1 4 cbr 210 ------- 0 0.1 1073741824.0 44 124
r 0.22918 0 1 cbr 210 ------- 0 0.1 1073741824.0 46 128
+ 0.22918 1 3 cbr 210 ------- 0 0.1 1073741824.0 46 128
- 0.22918 1 3 cbr 210 ------- 0 0.1 1073741824.0 46 128
+ 0.22918 1 4 cbr 210 ------- 0 0.1 1073741824.0 46 128
- 0.22918 1 4 cbr 210 ------- 0 0.1 1073741824.0 46 128
+ 0.23 0 1 cbr 210 ------- 0 0.1 1073741824.0 48 132
- 0.23 0 1 cbr 210 ------- 0 0.1 1073741824.0 48 132
r 0.23211 1 3 cbr 210 ------- 0 0.1 1073741824.0 45 126
r 0.23211 1 4 cbr 210 ------- 0 0.1 1073741824.0 45 126
r 0.23293 0 1 cbr 210 ------- 0 0.1 1073741824.0 47 130
+ 0.23293 1 3 cbr 210 ------- 0 0.1 1073741824.0 47 130
- 0.23293 1 3 cbr 210 ------- 0 0.1 1073741824.0 47 130
+ 0.23293 1 4 cbr 210 ------- 0 0.1 1073741824.0 47 130
- 0.23293 1 4 cbr 210 ------- 0 0.1 1073741824.0 47 130
+ 0.23375 0 1 cbr 210 ------- 0 0.1 1073741824.0 49 134
- 0.23375 0 1 cbr 210 ------- 0 0.1 1073741824.0 49 134
r 0.23586 1 3 cbr 210 ------- 0 0.1 1073741824.0 46 128
r 0.23586 1 4 cbr 210 ------- 0 0.1 1073741824.0 46 128
r 0.23668 0 1 cbr 210 ------- 0 0.1 1073741824.0 48 132
+ 0.23668 1 3 cbr 210 ------- 0 0.1 1073741824.0 48 132
- 0.23668 1 3 cbr 210 ------- 0 0.1 1073741824.0 48 132
+ 0.23668 1 4 cbr 210 ------- 0 0.1 1073741824.0 48 132
- 0.23668 1 4 cbr 210 ------- 0 0.1 1073741824.0 48 132
+ 0.2375 0 1 cbr 210 ------- 0 0.1 1073741824.0 50 136
- 0.2375 0 1 cbr 210 ------- 0 0.1 1073741824.0 50 136
r 0.23961 1 3 cbr 210 ------- 0 0.1 1073741824.0 47 130
r 0.23961 1 4 cbr 210 ------- 0 0.1 1073741824.0 47 130
r 0.24043 0 1 cbr 210 ------- 0 0.1 1073741824.0 49 134
+ 0.24043 1 3 cbr 210 ------- 0 0.1 1073741824.0 49 134
- 0.24043 1 3 cbr 210 ------- 0 0.1 1073741824.0 49 134
+ 0.24043 1 4 cbr 210 ------- 0 0.1 1073741824.0 49 134
- 0.24043 1 4 cbr 210 ------- 0 0.1 1073741824.0 49 134
+ 0.24125 0 1 cbr 210 ------- 0 0.1 1073741824.0 51 138
- 0.24125 0 1 cbr 210 ------- 0 0.1 1073741824.0 51 138
r 0.24336 1 3 cbr 210 ------- 0 0.1 1073741824.0 48 132
r 0.24336 1 4 cbr 210 ------- 0 0.1 1073741824.0 48 132
r 0.24418 0 1 cbr 210 ------- 0 0.1 1073741824.0 50 136
+ 0.24418 1 3 cbr 210 ------- 0 0.1 1073741824.0 50 136
- 0.24418 1 3 cbr 210 ------- 0 0.1 1073741824.0 50 136
+ 0.24418 1 4 cbr 210 ------- 0 0.1 1073741824.0 50 136
- 0.24418 1 4 cbr 210 ------- 0 0.1 1073741824.0 50 136
+ 0.245 0 1 cbr 210 ------- 0 0.1 1073741824.0 52 140
- 0.245 0 1 cbr 210 ------- 0 0.1 1073741824.0 52 140
r 0.24711 1 3 cbr 210 ------- 0 0.1 1073741824.0 49 134
r 0.24711 1 4 cbr 210 ------- 0 0.1 1073741824.0 49 134
r 0.24793 0 1 cbr 210 ------- 0 0.1 1073741824.0 51 138
+ 0.24793 1 3 cbr 210 ------- 0 0.1 1073741824.0 51 138
- 0.24793 1 3 cbr 210 ------- 0 0.1 1073741824.0 51 138
+ 0.24793 1 4 cbr 210 ------- 0 0.1 1073741824.0 51 138
- 0.24793 1 4 cbr 210 ------- 0 0.1 1073741824.0 51 138
+ 0.24875 0 1 cbr 210 ------- 0 0.1 1073741824.0 53 142
- 0.24875 0 1 cbr 210 ------- 0 0.1 1073741824.0 53 142
r 0.25086 1 3 cbr 210 ------- 0 0.1 1073741824.0 50 136
r 0.25086 1 4 cbr 210 ------- 0 0.1 1073741824.0 50 136
r 0.25168 0 1 cbr 210 ------- 0 0.1 1073741824.0 52 140
+ 0.25168 1 3 cbr 210 ------- 0 0.1 1073741824.0 52 140
- 0.25168 1 3 cbr 210 ------- 0 0.1 1073741824.0 52 140
+ 0.25168 1 4 cbr 210 ------- 0 0.1 1073741824.0 52 140
- 0.25168 1 4 cbr 210 ------- 0 0.1 1073741824.0 52 140
+ 0.2525 0 1 cbr 210 ------- 0 0.1 1073741824.0 54 144
- 0.2525 0 1 cbr 210 ------- 0 0.1 1073741824.0 54 144
r 0.25461 1 3 cbr 210 ------- 0 0.1 1073741824.0 51 138
r 0.25461 1 4 cbr 210 ------- 0 0.1 1073741824.0 51 138
r 0.25543 0 1 cbr 210 ------- 0 0.1 1073741824.0 53 142
+ 0.25543 1 3 cbr 210 ------- 0 0.1 1073741824.0 53 142
- 0.25543 1 3 cbr 210 ------- 0 0.1 1073741824.0 53 142
+ 0.25543 1 4 cbr 210 ------- 0 0.1 1073741824.0 53 142
- 0.25543 1 4 cbr 210 ------- 0 0.1 1073741824.0 53 142
+ 0.25625 0 1 cbr 210 ------- 0 0.1 1073741824.0 55 146
- 0.25625 0 1 cbr 210 ------- 0 0.1 1073741824.0 55 146
r 0.25836 1 3 cbr 210 ------- 0 0.1 1073741824.0 52 140
r 0.25836 1 4 cbr 210 ------- 0 0.1 1073741824.0 52 140
r 0.25918 0 1 cbr 210 ------- 0 0.1 1073741824.0 54 144
+ 0.25918 1 3 cbr 210 ------- 0 0.1 1073741824.0 54 144
- 0.25918 1 3 cbr 210 ------- 0 0.1 1073741824.0 54 144
+ 0.25918 1 4 cbr 210 ------- 0 0.1 1073741824.0 54 144
- 0.25918 1 4 cbr 210 ------- 0 0.1 1073741824.0 54 144